 Entering Gaussian System, Link 0=g16
 Input=_conf005.gjf
 Output=_conf005.log
 Initial command:
 /opt/ap/G16/B01/g16/l1.exe "/tmp2/scr/Gau-16271.inp" -scrdir="/tmp2/scr/"
 Entering Link 1 = /opt/ap/G16/B01/g16/l1.exe PID=     16272.
  
 Copyright (c) 1988-2017, Gaussian, Inc.  All Rights Reserved.
  
 This is part of the Gaussian(R) 16 program.  It is based on
 the Gaussian(R) 09 system (copyright 2009, Gaussian, Inc.),
 the Gaussian(R) 03 system (copyright 2003, Gaussian, Inc.),
 the Gaussian(R) 98 system (copyright 1998, Gaussian, Inc.),
 the Gaussian(R) 94 system (copyright 1995, Gaussian, Inc.),
 the Gaussian 92(TM) system (copyright 1992, Gaussian, Inc.),
 the Gaussian 90(TM) system (copyright 1990, Gaussian, Inc.),
 the Gaussian 88(TM) system (copyright 1988, Gaussian, Inc.),
 the Gaussian 86(TM) system (copyright 1986, Carnegie Mellon
 University), and the Gaussian 82(TM) system (copyright 1983,
 Carnegie Mellon University). Gaussian is a federally registered
 trademark of Gaussian, Inc.
  
 This software contains proprietary and confidential information,
 including trade secrets, belonging to Gaussian, Inc.
  
 This software is provided under written license and may be
 used, copied, transmitted, or stored only in accord with that
 written license.
  
 The following legend is applicable only to US Government
 contracts under FAR:
  
                    RESTRICTED RIGHTS LEGEND
  
 Use, reproduction and disclosure by the US Government is
 subject to restrictions as set forth in subparagraphs (a)
 and (c) of the Commercial Computer Software - Restricted
 Rights clause in FAR 52.227-19.
  
 Gaussian, Inc.
 340 Quinnipiac St., Bldg. 40, Wallingford CT 06492
  
  
 ---------------------------------------------------------------
 Warning -- This program may not be used in any manner that
 competes with the business of Gaussian, Inc. or will provide
 assistance to any competitor of Gaussian, Inc.  The licensee
 of this program is prohibited from giving any competitor of
 Gaussian, Inc. access to this program.  By using this program,
 the user acknowledges that Gaussian, Inc. is engaged in the
 business of creating and licensing software in the field of
 computational chemistry and represents and warrants to the
 licensee that it is not a competitor of Gaussian, Inc. and that
 it will not use this program in any manner prohibited above.
 ---------------------------------------------------------------
  

 Cite this work as:
 Gaussian 16, Revision B.01,
 M. J. Frisch, G. W. Trucks, H. B. Schlegel, G. E. Scuseria, 
 M. A. Robb, J. R. Cheeseman, G. Scalmani, V. Barone, 
 G. A. Petersson, H. Nakatsuji, X. Li, M. Caricato, A. V. Marenich, 
 J. Bloino, B. G. Janesko, R. Gomperts, B. Mennucci, H. P. Hratchian, 
 J. V. Ortiz, A. F. Izmaylov, J. L. Sonnenberg, D. Williams-Young, 
 F. Ding, F. Lipparini, F. Egidi, J. Goings, B. Peng, A. Petrone, 
 T. Henderson, D. Ranasinghe, V. G. Zakrzewski, J. Gao, N. Rega, 
 G. Zheng, W. Liang, M. Hada, M. Ehara, K. Toyota, R. Fukuda, 
 J. Hasegawa, M. Ishida, T. Nakajima, Y. Honda, O. Kitao, H. Nakai, 
 T. Vreven, K. Throssell, J. A. Montgomery, Jr., J. E. Peralta, 
 F. Ogliaro, M. J. Bearpark, J. J. Heyd, E. N. Brothers, K. N. Kudin, 
 V. N. Staroverov, T. A. Keith, R. Kobayashi, J. Normand, 
 K. Raghavachari, A. P. Rendell, J. C. Burant, S. S. Iyengar, 
 J. Tomasi, M. Cossi, J. M. Millam, M. Klene, C. Adamo, R. Cammi, 
 J. W. Ochterski, R. L. Martin, K. Morokuma, O. Farkas, 
 J. B. Foresman, and D. J. Fox, Gaussian, Inc., Wallingford CT, 2016.
 
 ******************************************
 Gaussian 16:  ES64L-G16RevB.01 20-Dec-2017
                20-Nov-2022 
 ******************************************
 %nprocshared=32
 Will use up to   32 processors via shared memory.
 %mem=120GB
 %chk=_conf005.chk
 ----------------------------------------
 #P wB97XD/6-311++G(d,p) scf=maxcycle=512
 ----------------------------------------
 1/38=1,172=1/1;
 2/12=2,17=6,18=5,40=1/2;
 3/5=4,6=6,7=1111,11=2,25=1,30=1,74=-58/1,2,3;
 4//1;
 5/5=2,7=512,38=5/2;
 6/7=2,8=2,9=2,10=2,28=1/1;
 99/5=1,9=1/99;
 Leave Link    1 at Sun Nov 20 17:25:53 2022, MaxMem= 16106127360 cpu:               2.8 elap:               0.1
 (Enter /opt/ap/G16/B01/g16/l101.exe)
 ----------------------------
 _conf005.gjf nmol_natom 1_15
 ----------------------------
 Symbolic Z-matrix:
 Charge =  0 Multiplicity = 1
 C
 C                    1     1.39016 
 C                    1     1.39195  2     119.89594 
 C                    2     1.38669  1     119.88076  3     0.70826  0
 H                    2     0.98744  1     119.71654  3    -179.90726  0
 C                    1     1.48429  2     119.93615  4    -179.87772  0
 C                    3     1.40101  1     119.72365  2    -0.26267  0
 H                    3     0.99022  1     119.18862  2     178.85398  0
 C                    4     1.37899  2     120.45786  1    -0.48041  0
 H                    4     0.98347  2     120.30443  1     179.36167  0
 O                    6     1.2746   1     118.00615  2    -1.25977  0
 O                    6     1.26363  1     118.77715  2     179.20604  0
 H                    7     0.98977  3     119.37862  1    -178.93546  0
 H                    9     0.99498  4     119.46723  2    -178.58827  0
 H                    11    0.8968   6     118.15824  1    -245.     0
 
 ITRead=  0  0  0  0  0  0  0  0  0  0  0  0  0  0  0
 MicOpt= -1 -1 -1 -1 -1 -1 -1 -1 -1 -1 -1 -1 -1 -1 -1
 NAtoms=     15 NQM=       15 NQMF=       0 NMMI=      0 NMMIF=      0
                NMic=       0 NMicF=      0.
                    Isotopes and Nuclear Properties:
 (Nuclear quadrupole moments (NQMom) in fm**2, nuclear magnetic moments (NMagM)
  in nuclear magnetons)

  Atom         1           2           3           4           5           6           7           8           9          10
 IAtWgt=          12          12          12          12           1          12          12           1          12           1
 AtmWgt=  12.0000000  12.0000000  12.0000000  12.0000000   1.0078250  12.0000000  12.0000000   1.0078250  12.0000000   1.0078250
 NucSpn=           0           0           0           0           1           0           0           1           0           1
 AtZEff=  -0.0000000  -0.0000000  -0.0000000  -0.0000000  -0.0000000  -0.0000000  -0.0000000  -0.0000000  -0.0000000  -0.0000000
 NQMom=    0.0000000   0.0000000   0.0000000   0.0000000   0.0000000   0.0000000   0.0000000   0.0000000   0.0000000   0.0000000
 NMagM=    0.0000000   0.0000000   0.0000000   0.0000000   2.7928460   0.0000000   0.0000000   2.7928460   0.0000000   2.7928460
 AtZNuc=   6.0000000   6.0000000   6.0000000   6.0000000   1.0000000   6.0000000   6.0000000   1.0000000   6.0000000   1.0000000

  Atom        11          12          13          14          15
 IAtWgt=          16          16           1           1           1
 AtmWgt=  15.9949146  15.9949146   1.0078250   1.0078250   1.0078250
 NucSpn=           0           0           1           1           1
 AtZEff=  -0.0000000  -0.0000000  -0.0000000  -0.0000000  -0.0000000
 NQMom=    0.0000000   0.0000000   0.0000000   0.0000000   0.0000000
 NMagM=    0.0000000   0.0000000   2.7928460   2.7928460   2.7928460
 AtZNuc=   8.0000000   8.0000000   1.0000000   1.0000000   1.0000000
 Leave Link  101 at Sun Nov 20 17:25:53 2022, MaxMem= 16106127360 cpu:               5.2 elap:               0.2
 (Enter /opt/ap/G16/B01/g16/l202.exe)
                          Input orientation:                          
 ---------------------------------------------------------------------
 Center     Atomic      Atomic             Coordinates (Angstroms)
 Number     Number       Type             X           Y           Z
 ---------------------------------------------------------------------
      1          6           0        0.000000    0.000000    0.000000
      2          6           0        0.000000    0.000000    1.390162
      3          6           0        1.206722    0.000000   -0.693782
      4          6           0        1.202258    0.014862    2.081006
      5          1           0       -0.857581   -0.001388    1.879646
      6          6           0       -1.286190   -0.013155   -0.740711
      7          6           0        2.415349    0.005578    0.014752
      8          1           0        1.194584   -0.017290   -1.683772
      9          6           0        2.400563    0.019708    1.398617
     10          1           0        1.209438    0.024411    3.064408
     11          8           0       -2.365984   -0.048941   -0.064425
     12          8           0       -1.260842    0.002453   -2.003986
     13          1           0        3.270315    0.021574   -0.483669
     14          1           0        3.254554    0.009066    1.909081
     15          1           0       -2.917103    0.657107   -0.109386
 ---------------------------------------------------------------------
                    Distance matrix (angstroms):
                    1          2          3          4          5
     1  C    0.000000
     2  C    1.390162   0.000000
     3  C    1.391945   2.408112   0.000000
     4  C    2.403379   1.386690   2.774832   0.000000
     5  H    2.066039   0.987443   3.299073   2.069721   0.000000
     6  C    1.484288   2.488991   2.493388   3.762345   2.655206
     7  C    2.415401   2.779513   1.401011   2.396056   3.766955
     8  H    2.064563   3.297939   0.990215   3.764924   4.112127
     9  C    2.778349   2.400659   2.409104   1.378990   3.293530
    10  H    3.294530   2.065535   3.758270   0.983474   2.382624
    11  O    2.367367   2.777786   3.628045   4.164047   2.461088
    12  O    2.367633   3.620769   2.793834   4.770133   3.904515
    13  H    3.305958   3.769173   2.074374   3.294611   4.756607
    14  H    3.773167   3.295676   3.311886   2.059493   4.112253
    15  H    2.992197   3.345134   4.216543   4.709504   2.937940
                    6          7          8          9         10
     6  C    0.000000
     7  C    3.777892   0.000000
     8  H    2.653982   2.091836   0.000000
     9  C    4.262622   1.384016   3.310118   0.000000
    10  H    4.550659   3.279477   4.748386   2.047842   0.000000
    11  O    1.274598   4.782299   3.911641   4.986499   4.751696
    12  O    1.263626   4.194007   2.476296   4.998389   5.638384
    13  H    4.563881   0.989771   2.398003   2.073517   4.103177
    14  H    5.257398   2.071897   4.141589   0.994981   2.348938
    15  H    1.872885   5.373541   4.454152   5.563984   5.244198
                   11         12         13         14         15
    11  O    0.000000
    12  O    2.232908   0.000000
    13  H    5.652309   4.779447   0.000000
    14  H    5.957225   5.975025   2.392834   0.000000
    15  H    0.896804   2.600246   6.231222   6.525604   0.000000
 Stoichiometry    C7H6O2
 Framework group  C1[X(C7H6O2)]
 Deg. of freedom    39
 Full point group                 C1      NOp   1
 Largest Abelian subgroup         C1      NOp   1
 Largest concise Abelian subgroup C1      NOp   1
                         Standard orientation:                         
 ---------------------------------------------------------------------
 Center     Atomic      Atomic             Coordinates (Angstroms)
 Number     Number       Type             X           Y           Z
 ---------------------------------------------------------------------
      1          6           0       -0.226680    0.032435   -0.007526
      2          6           0        0.435139   -1.190053   -0.015716
      3          6           0        0.504226    1.217004    0.001641
      4          6           0        1.821290   -1.225337    0.000135
      5          1           0       -0.085990   -2.028746   -0.023598
      6          6           0       -1.710383    0.071602   -0.021729
      7          6           0        1.904408    1.169263    0.008131
      8          1           0        0.022259    2.081933   -0.009867
      9          6           0        2.550214   -0.054829    0.014045
     10          1           0        2.295768   -2.086776    0.003920
     11          8           0       -2.337965   -1.036899   -0.066044
     12          8           0       -2.289518    1.194463    0.001428
     13          1           0        2.418970    2.014464    0.030662
     14          1           0        3.544245   -0.097099    0.003990
     15          1           0       -2.844660   -1.264797    0.637931
 ---------------------------------------------------------------------
 Rotational constants (GHZ):           3.9371621           1.2447136           0.9474272
 Leave Link  202 at Sun Nov 20 17:25:53 2022, MaxMem= 16106127360 cpu:               0.3 elap:               0.0
 (Enter /opt/ap/G16/B01/g16/l301.exe)
 Standard basis: 6-311++G(d,p) (5D, 7F)
 Ernie: Thresh=  0.10000D-02 Tol=  0.10000D-05 Strict=F.
 There are   249 symmetry adapted cartesian basis functions of A   symmetry.
 There are   240 symmetry adapted basis functions of A   symmetry.
   240 basis functions,   378 primitive gaussians,   249 cartesian basis functions
    32 alpha electrons       32 beta electrons
       nuclear repulsion energy       409.7349852335 Hartrees.
 IExCor= 4639 DFT=T Ex+Corr=wB97XD ExCW=0 ScaHFX=  1.000000
 ScaDFX=  1.000000  1.000000  1.000000  1.000000 ScalE2=  1.000000  1.000000
 IRadAn=      5 IRanWt=     -1 IRanGd=            0 ICorTp=0 IEmpDi=121
 HFx  wShort=  0.000000 wLong=  0.200000 cFull=  0.222036 cShort=  0.000000 cLong=  0.777964
 DFx  wShort=  0.000000 wLong=  0.200000 cFull=  0.000000 cShort=  0.000000 cLong=  1.000000
 NAtoms=   15 NActive=   15 NUniq=   15 SFac= 1.00D+00 NAtFMM=   60 NAOKFM=F Big=F
 Integral buffers will be    131072 words long.
 Raffenetti 2 integral format.
 Two-electron integral symmetry is turned on.
 R6Disp:  Grimme-D2 Dispersion energy=       -0.0064782714 Hartrees.
 Nuclear repulsion after empirical dispersion term =      409.7285069622 Hartrees.
 Leave Link  301 at Sun Nov 20 17:25:53 2022, MaxMem= 16106127360 cpu:               1.2 elap:               0.0
 (Enter /opt/ap/G16/B01/g16/l302.exe)
 NPDir=0 NMtPBC=     1 NCelOv=     1 NCel=       1 NClECP=     1 NCelD=      1
         NCelK=      1 NCelE2=     1 NClLst=     1 CellRange=     0.0.
 One-electron integrals computed using PRISM.
 One-electron integral symmetry used in STVInt
 NBasis=   240 RedAO= T EigKep=  1.20D-06  NBF=   240
 NBsUse=   240 1.00D-06 EigRej= -1.00D+00 NBFU=   240
 Precomputing XC quadrature grid using
 IXCGrd= 4 IRadAn=           5 IRanWt=          -1 IRanGd=           0 AccXCQ= 0.00D+00.
 Generated NRdTot=       0 NPtTot=           0 NUsed=           0 NTot=          32
 NSgBfM=   249   249   249   249   249 MxSgAt=    15 MxSgA2=    15.
 Leave Link  302 at Sun Nov 20 17:25:53 2022, MaxMem= 16106127360 cpu:               5.3 elap:               0.2
 (Enter /opt/ap/G16/B01/g16/l303.exe)
 DipDrv:  MaxL=1.
 Leave Link  303 at Sun Nov 20 17:25:53 2022, MaxMem= 16106127360 cpu:               1.3 elap:               0.0
 (Enter /opt/ap/G16/B01/g16/l401.exe)
 ExpMin= 3.60D-02 ExpMax= 8.59D+03 ExpMxC= 1.30D+03 IAcc=3 IRadAn=         5 AccDes= 0.00D+00
 Harris functional with IExCor= 4639 and IRadAn=       5 diagonalized for initial guess.
 HarFok:  IExCor= 4639 AccDes= 0.00D+00 IRadAn=         5 IDoV= 1 UseB2=F ITyADJ=14
 ICtDFT=  3500011 ScaDFX=  1.000000  1.000000  1.000000  1.000000
 FoFCou: FMM=F IPFlag=           0 FMFlag=      100000 FMFlg1=           0
         NFxFlg=           0 DoJE=T BraDBF=F KetDBF=T FulRan=T
         wScrn=  0.000000 ICntrl=       500 IOpCl=  0 I1Cent=   200000004 NGrid=           0
         NMat0=    1 NMatS0=      1 NMatT0=    0 NMatD0=    1 NMtDS0=    0 NMtDT0=    0
 Petite list used in FoFCou.
 Harris En= -403.241246918034    
 JPrj=0 DoOrth=F DoCkMO=F.
 Leave Link  401 at Sun Nov 20 17:25:53 2022, MaxMem= 16106127360 cpu:              11.8 elap:               0.4
 (Enter /opt/ap/G16/B01/g16/l502.exe)
 Integral symmetry usage will be decided dynamically.
 Closed shell SCF:
 Using DIIS extrapolation, IDIIS=  1040.
 NGot= 16106127360 LenX= 16105992971 LenY= 16105930529
 Requested convergence on RMS density matrix=1.00D-08 within 512 cycles.
 Requested convergence on MAX density matrix=1.00D-06.
 Requested convergence on             energy=1.00D-06.
 No special actions if energy rises.
 Fock matrices will be formed incrementally for  20 cycles.

 Cycle   1  Pass 1  IDiag  1:
 FoFJK:  IHMeth= 1 ICntrl=       0 DoSepK=T KAlg= 0 I1Cent=           0 FoldK=F
 IRaf=         1 NMat=       1 IRICut=       1 DoRegI=T DoRafI=F ISym2E= 0 IDoP0=0 IntGTp=1.
 FoFCou: FMM=F IPFlag=           0 FMFlag=      100000 FMFlg1=           0
         NFxFlg=           0 DoJE=T BraDBF=F KetDBF=F FulRan=T
         wScrn=  0.000000 ICntrl=       500 IOpCl=  0 I1Cent=           0 NGrid=           0
         NMat0=    1 NMatS0=      1 NMatT0=    0 NMatD0=    1 NMtDS0=    0 NMtDT0=    0
 Symmetry not used in FoFCou.
 E= -420.619967477844    
 DIIS: error= 5.28D-02 at cycle   1 NSaved=   1.
 NSaved= 1 IEnMin= 1 EnMin= -420.619967477844     IErMin= 1 ErrMin= 5.28D-02
 ErrMax= 5.28D-02  0.00D+00 EMaxC= 1.00D-01 BMatC= 8.57D-01 BMatP= 8.57D-01
 IDIUse=3 WtCom= 4.72D-01 WtEn= 5.28D-01
 Coeff-Com:  0.100D+01
 Coeff-En:   0.100D+01
 Coeff:      0.100D+01
 Gap=     0.425 Goal=   None    Shift=    0.000
 GapD=    0.425 DampG=2.000 DampE=0.500 DampFc=1.0000 IDamp=-1.
 RMSDP=3.16D-02 MaxDP=2.09D+00              OVMax= 1.06D-01

 Cycle   2  Pass 1  IDiag  1:
 RMSU=  1.48D-02    CP:  6.48D-01
 E= -420.693433987221     Delta-E=       -0.073466509377 Rises=F Damp=F
 DIIS: error= 1.08D-02 at cycle   2 NSaved=   2.
 NSaved= 2 IEnMin= 2 EnMin= -420.693433987221     IErMin= 2 ErrMin= 1.08D-02
 ErrMax= 1.08D-02  0.00D+00 EMaxC= 1.00D-01 BMatC= 4.74D-02 BMatP= 8.57D-01
 IDIUse=3 WtCom= 8.92D-01 WtEn= 1.08D-01
 Coeff-Com:  0.124D+00 0.876D+00
 Coeff-En:   0.318D-01 0.968D+00
 Coeff:      0.114D+00 0.886D+00
 Gap=     0.421 Goal=   None    Shift=    0.000
 RMSDP=7.93D-03 MaxDP=5.98D-01 DE=-7.35D-02 OVMax= 7.42D-02

 Cycle   3  Pass 1  IDiag  1:
 RMSU=  5.92D-03    CP:  6.12D-01  6.98D-01
 E= -420.710592379748     Delta-E=       -0.017158392527 Rises=F Damp=F
 DIIS: error= 8.99D-03 at cycle   3 NSaved=   3.
 NSaved= 3 IEnMin= 3 EnMin= -420.710592379748     IErMin= 3 ErrMin= 8.99D-03
 ErrMax= 8.99D-03  0.00D+00 EMaxC= 1.00D-01 BMatC= 2.51D-02 BMatP= 4.74D-02
 IDIUse=3 WtCom= 9.10D-01 WtEn= 8.99D-02
 Coeff-Com:  0.237D-01 0.429D+00 0.547D+00
 Coeff-En:   0.000D+00 0.344D+00 0.656D+00
 Coeff:      0.216D-01 0.421D+00 0.557D+00
 Gap=     0.359 Goal=   None    Shift=    0.000
 RMSDP=3.52D-03 MaxDP=2.57D-01 DE=-1.72D-02 OVMax= 3.32D-02

 Cycle   4  Pass 1  IDiag  1:
 RMSU=  1.30D-03    CP:  6.02D-01  8.62D-01  6.54D-01
 E= -420.730755798375     Delta-E=       -0.020163418627 Rises=F Damp=F
 DIIS: error= 1.74D-03 at cycle   4 NSaved=   4.
 NSaved= 4 IEnMin= 4 EnMin= -420.730755798375     IErMin= 4 ErrMin= 1.74D-03
 ErrMax= 1.74D-03  0.00D+00 EMaxC= 1.00D-01 BMatC= 9.15D-04 BMatP= 2.51D-02
 IDIUse=3 WtCom= 9.83D-01 WtEn= 1.74D-02
 Coeff-Com:  0.978D-02 0.211D+00 0.299D+00 0.481D+00
 Coeff-En:   0.000D+00 0.000D+00 0.000D+00 0.100D+01
 Coeff:      0.961D-02 0.207D+00 0.293D+00 0.490D+00
 Gap=     0.342 Goal=   None    Shift=    0.000
 RMSDP=8.54D-04 MaxDP=6.51D-02 DE=-2.02D-02 OVMax= 7.40D-03

 Cycle   5  Pass 1  IDiag  1:
 RMSU=  5.87D-04    CP:  5.96D-01  8.50D-01  6.87D-01  7.76D-01
 E= -420.731383135834     Delta-E=       -0.000627337459 Rises=F Damp=F
 DIIS: error= 4.17D-04 at cycle   5 NSaved=   5.
 NSaved= 5 IEnMin= 5 EnMin= -420.731383135834     IErMin= 5 ErrMin= 4.17D-04
 ErrMax= 4.17D-04  0.00D+00 EMaxC= 1.00D-01 BMatC= 5.02D-05 BMatP= 9.15D-04
 IDIUse=3 WtCom= 9.96D-01 WtEn= 4.17D-03
 Coeff-Com:  0.137D-03 0.111D-01 0.255D-01 0.191D+00 0.773D+00
 Coeff-En:   0.000D+00 0.000D+00 0.000D+00 0.000D+00 0.100D+01
 Coeff:      0.137D-03 0.111D-01 0.254D-01 0.190D+00 0.774D+00
 Gap=     0.343 Goal=   None    Shift=    0.000
 RMSDP=2.23D-04 MaxDP=1.36D-02 DE=-6.27D-04 OVMax= 2.18D-03

 Cycle   6  Pass 1  IDiag  1:
 RMSU=  1.25D-04    CP:  5.94D-01  8.52D-01  7.03D-01  7.92D-01  1.04D+00
 E= -420.731422378373     Delta-E=       -0.000039242538 Rises=F Damp=F
 DIIS: error= 1.57D-04 at cycle   6 NSaved=   6.
 NSaved= 6 IEnMin= 6 EnMin= -420.731422378373     IErMin= 6 ErrMin= 1.57D-04
 ErrMax= 1.57D-04  0.00D+00 EMaxC= 1.00D-01 BMatC= 7.20D-06 BMatP= 5.02D-05
 IDIUse=3 WtCom= 9.98D-01 WtEn= 1.57D-03
 Coeff-Com: -0.102D-02-0.180D-01-0.206D-01 0.286D-01 0.352D+00 0.659D+00
 Coeff-En:   0.000D+00 0.000D+00 0.000D+00 0.000D+00 0.000D+00 0.100D+01
 Coeff:     -0.102D-02-0.180D-01-0.206D-01 0.286D-01 0.351D+00 0.660D+00
 Gap=     0.343 Goal=   None    Shift=    0.000
 RMSDP=1.55D-04 MaxDP=1.21D-02 DE=-3.92D-05 OVMax= 8.32D-04

 Cycle   7  Pass 1  IDiag  1:
 RMSU=  3.83D-05    CP:  5.93D-01  8.50D-01  7.13D-01  8.02D-01  1.15D+00
                    CP:  1.04D+00
 E= -420.731429243758     Delta-E=       -0.000006865385 Rises=F Damp=F
 DIIS: error= 7.43D-05 at cycle   7 NSaved=   7.
 NSaved= 7 IEnMin= 7 EnMin= -420.731429243758     IErMin= 7 ErrMin= 7.43D-05
 ErrMax= 7.43D-05  0.00D+00 EMaxC= 1.00D-01 BMatC= 3.04D-07 BMatP= 7.20D-06
 IDIUse=1 WtCom= 1.00D+00 WtEn= 0.00D+00
 Coeff-Com: -0.271D-03-0.616D-02-0.810D-02-0.147D-01 0.155D-01 0.151D+00
 Coeff-Com:  0.862D+00
 Coeff:     -0.271D-03-0.616D-02-0.810D-02-0.147D-01 0.155D-01 0.151D+00
 Coeff:      0.862D+00
 Gap=     0.343 Goal=   None    Shift=    0.000
 RMSDP=3.89D-05 MaxDP=2.09D-03 DE=-6.87D-06 OVMax= 3.67D-04

 Cycle   8  Pass 1  IDiag  1:
 RMSU=  1.27D-05    CP:  5.93D-01  8.50D-01  7.14D-01  8.03D-01  1.20D+00
                    CP:  1.09D+00  1.08D+00
 E= -420.731429816271     Delta-E=       -0.000000572513 Rises=F Damp=F
 DIIS: error= 1.69D-05 at cycle   8 NSaved=   8.
 NSaved= 8 IEnMin= 8 EnMin= -420.731429816271     IErMin= 8 ErrMin= 1.69D-05
 ErrMax= 1.69D-05  0.00D+00 EMaxC= 1.00D-01 BMatC= 4.72D-08 BMatP= 3.04D-07
 IDIUse=1 WtCom= 1.00D+00 WtEn= 0.00D+00
 Coeff-Com:  0.196D-04-0.826D-05-0.326D-03-0.885D-02-0.347D-01-0.305D-01
 Coeff-Com:  0.271D+00 0.803D+00
 Coeff:      0.196D-04-0.826D-05-0.326D-03-0.885D-02-0.347D-01-0.305D-01
 Coeff:      0.271D+00 0.803D+00
 Gap=     0.343 Goal=   None    Shift=    0.000
 RMSDP=1.37D-05 MaxDP=7.57D-04 DE=-5.73D-07 OVMax= 1.37D-04

 Cycle   9  Pass 1  IDiag  1:
 RMSU=  6.12D-06    CP:  5.92D-01  8.50D-01  7.15D-01  8.01D-01  1.21D+00
                    CP:  1.11D+00  1.12D+00  1.22D+00
 E= -420.731429895684     Delta-E=       -0.000000079413 Rises=F Damp=F
 DIIS: error= 1.04D-05 at cycle   9 NSaved=   9.
 NSaved= 9 IEnMin= 9 EnMin= -420.731429895684     IErMin= 9 ErrMin= 1.04D-05
 ErrMax= 1.04D-05  0.00D+00 EMaxC= 1.00D-01 BMatC= 6.40D-09 BMatP= 4.72D-08
 IDIUse=1 WtCom= 1.00D+00 WtEn= 0.00D+00
 Coeff-Com:  0.422D-04 0.807D-03 0.931D-03-0.138D-02-0.128D-01-0.312D-01
 Coeff-Com: -0.120D-01 0.277D+00 0.778D+00
 Coeff:      0.422D-04 0.807D-03 0.931D-03-0.138D-02-0.128D-01-0.312D-01
 Coeff:     -0.120D-01 0.277D+00 0.778D+00
 Gap=     0.343 Goal=   None    Shift=    0.000
 RMSDP=5.01D-06 MaxDP=2.37D-04 DE=-7.94D-08 OVMax= 5.08D-05

 Cycle  10  Pass 1  IDiag  1:
 RMSU=  1.93D-06    CP:  5.92D-01  8.50D-01  7.15D-01  7.99D-01  1.22D+00
                    CP:  1.12D+00  1.13D+00  1.31D+00  1.22D+00
 E= -420.731429905439     Delta-E=       -0.000000009755 Rises=F Damp=F
 DIIS: error= 1.45D-06 at cycle  10 NSaved=  10.
 NSaved=10 IEnMin=10 EnMin= -420.731429905439     IErMin=10 ErrMin= 1.45D-06
 ErrMax= 1.45D-06  0.00D+00 EMaxC= 1.00D-01 BMatC= 7.76D-10 BMatP= 6.40D-09
 IDIUse=1 WtCom= 1.00D+00 WtEn= 0.00D+00
 Coeff-Com:  0.984D-05 0.210D-03 0.260D-03 0.404D-03 0.516D-03-0.650D-02
 Coeff-Com: -0.306D-01-0.845D-02 0.244D+00 0.800D+00
 Coeff:      0.984D-05 0.210D-03 0.260D-03 0.404D-03 0.516D-03-0.650D-02
 Coeff:     -0.306D-01-0.845D-02 0.244D+00 0.800D+00
 Gap=     0.343 Goal=   None    Shift=    0.000
 RMSDP=2.00D-06 MaxDP=1.58D-04 DE=-9.75D-09 OVMax= 1.56D-05

 Cycle  11  Pass 1  IDiag  1:
 RMSU=  5.63D-07    CP:  5.93D-01  8.50D-01  7.15D-01  7.99D-01  1.22D+00
                    CP:  1.12D+00  1.13D+00  1.37D+00  1.35D+00  1.18D+00
 E= -420.731429906616     Delta-E=       -0.000000001177 Rises=F Damp=F
 DIIS: error= 5.42D-07 at cycle  11 NSaved=  11.
 NSaved=11 IEnMin=11 EnMin= -420.731429906616     IErMin=11 ErrMin= 5.42D-07
 ErrMax= 5.42D-07  0.00D+00 EMaxC= 1.00D-01 BMatC= 9.91D-11 BMatP= 7.76D-10
 IDIUse=1 WtCom= 1.00D+00 WtEn= 0.00D+00
 Coeff-Com: -0.198D-05-0.204D-04-0.151D-04 0.340D-03 0.200D-02 0.140D-02
 Coeff-Com: -0.813D-02-0.437D-01-0.270D-01 0.256D+00 0.819D+00
 Coeff:     -0.198D-05-0.204D-04-0.151D-04 0.340D-03 0.200D-02 0.140D-02
 Coeff:     -0.813D-02-0.437D-01-0.270D-01 0.256D+00 0.819D+00
 Gap=     0.343 Goal=   None    Shift=    0.000
 RMSDP=7.73D-07 MaxDP=5.17D-05 DE=-1.18D-09 OVMax= 8.16D-06

 Cycle  12  Pass 1  IDiag  1:
 RMSU=  1.97D-07    CP:  5.93D-01  8.50D-01  7.15D-01  7.99D-01  1.22D+00
                    CP:  1.11D+00  1.13D+00  1.39D+00  1.40D+00  1.34D+00
                    CP:  1.29D+00
 E= -420.731429906794     Delta-E=       -0.000000000178 Rises=F Damp=F
 DIIS: error= 1.61D-07 at cycle  12 NSaved=  12.
 NSaved=12 IEnMin=12 EnMin= -420.731429906794     IErMin=12 ErrMin= 1.61D-07
 ErrMax= 1.61D-07  0.00D+00 EMaxC= 1.00D-01 BMatC= 9.45D-12 BMatP= 9.91D-11
 IDIUse=1 WtCom= 1.00D+00 WtEn= 0.00D+00
 Coeff-Com: -0.125D-05-0.211D-04-0.231D-04 0.569D-04 0.476D-03 0.731D-03
 Coeff-Com:  0.981D-03-0.102D-01-0.268D-01-0.328D-02 0.213D+00 0.825D+00
 Coeff:     -0.125D-05-0.211D-04-0.231D-04 0.569D-04 0.476D-03 0.731D-03
 Coeff:      0.981D-03-0.102D-01-0.268D-01-0.328D-02 0.213D+00 0.825D+00
 Gap=     0.343 Goal=   None    Shift=    0.000
 RMSDP=1.25D-07 MaxDP=6.38D-06 DE=-1.78D-10 OVMax= 3.69D-06

 Cycle  13  Pass 1  IDiag  1:
 RMSU=  5.69D-08    CP:  5.93D-01  8.50D-01  7.15D-01  7.99D-01  1.22D+00
                    CP:  1.11D+00  1.13D+00  1.39D+00  1.41D+00  1.36D+00
                    CP:  1.36D+00  1.06D+00
 E= -420.731429906819     Delta-E=       -0.000000000026 Rises=F Damp=F
 DIIS: error= 8.16D-08 at cycle  13 NSaved=  13.
 NSaved=13 IEnMin=13 EnMin= -420.731429906819     IErMin=13 ErrMin= 8.16D-08
 ErrMax= 8.16D-08  0.00D+00 EMaxC= 1.00D-01 BMatC= 1.55D-12 BMatP= 9.45D-12
 IDIUse=1 WtCom= 1.00D+00 WtEn= 0.00D+00
 Coeff-Com:  0.103D-06-0.301D-05-0.576D-05-0.582D-04-0.297D-03-0.146D-03
 Coeff-Com:  0.196D-02 0.632D-02-0.737D-03-0.528D-01-0.123D+00 0.156D+00
 Coeff-Com:  0.101D+01
 Coeff:      0.103D-06-0.301D-05-0.576D-05-0.582D-04-0.297D-03-0.146D-03
 Coeff:      0.196D-02 0.632D-02-0.737D-03-0.528D-01-0.123D+00 0.156D+00
 Coeff:      0.101D+01
 Gap=     0.343 Goal=   None    Shift=    0.000
 RMSDP=6.88D-08 MaxDP=5.41D-06 DE=-2.56D-11 OVMax= 2.88D-06

 Cycle  14  Pass 1  IDiag  1:
 RMSU=  2.65D-08    CP:  5.93D-01  8.50D-01  7.15D-01  7.99D-01  1.22D+00
                    CP:  1.11D+00  1.13D+00  1.39D+00  1.41D+00  1.37D+00
                    CP:  1.42D+00  1.18D+00  1.36D+00
 E= -420.731429906828     Delta-E=       -0.000000000009 Rises=F Damp=F
 DIIS: error= 3.65D-08 at cycle  14 NSaved=  14.
 NSaved=14 IEnMin=14 EnMin= -420.731429906828     IErMin=14 ErrMin= 3.65D-08
 ErrMax= 3.65D-08  0.00D+00 EMaxC= 1.00D-01 BMatC= 1.83D-13 BMatP= 1.55D-12
 IDIUse=1 WtCom= 1.00D+00 WtEn= 0.00D+00
 Coeff-Com:  0.137D-06 0.255D-05 0.287D-05-0.989D-05-0.833D-04-0.750D-04
 Coeff-Com: -0.237D-05 0.166D-02 0.294D-02-0.368D-02-0.306D-01-0.922D-01
 Coeff-Com:  0.508D-01 0.107D+01
 Coeff:      0.137D-06 0.255D-05 0.287D-05-0.989D-05-0.833D-04-0.750D-04
 Coeff:     -0.237D-05 0.166D-02 0.294D-02-0.368D-02-0.306D-01-0.922D-01
 Coeff:      0.508D-01 0.107D+01
 Gap=     0.343 Goal=   None    Shift=    0.000
 RMSDP=2.39D-08 MaxDP=9.17D-07 DE=-8.87D-12 OVMax= 1.20D-06

 Cycle  15  Pass 1  IDiag  1:
 RMSU=  9.99D-09    CP:  5.93D-01  8.50D-01  7.15D-01  7.99D-01  1.22D+00
                    CP:  1.11D+00  1.13D+00  1.39D+00  1.41D+00  1.37D+00
                    CP:  1.42D+00  1.17D+00  1.57D+00  1.39D+00
 E= -420.731429906831     Delta-E=       -0.000000000003 Rises=F Damp=F
 DIIS: error= 1.94D-08 at cycle  15 NSaved=  15.
 NSaved=15 IEnMin=15 EnMin= -420.731429906831     IErMin=15 ErrMin= 1.94D-08
 ErrMax= 1.94D-08  0.00D+00 EMaxC= 1.00D-01 BMatC= 4.95D-14 BMatP= 1.83D-13
 IDIUse=1 WtCom= 1.00D+00 WtEn= 0.00D+00
 Coeff-Com:  0.266D-07 0.135D-05 0.198D-05 0.630D-05 0.194D-04 0.914D-05
 Coeff-Com: -0.331D-03-0.441D-03 0.106D-02 0.763D-02 0.106D-01-0.550D-01
 Coeff-Com: -0.159D+00 0.374D+00 0.822D+00
 Coeff:      0.266D-07 0.135D-05 0.198D-05 0.630D-05 0.194D-04 0.914D-05
 Coeff:     -0.331D-03-0.441D-03 0.106D-02 0.763D-02 0.106D-01-0.550D-01
 Coeff:     -0.159D+00 0.374D+00 0.822D+00
 Gap=     0.343 Goal=   None    Shift=    0.000
 RMSDP=1.03D-08 MaxDP=4.82D-07 DE=-2.73D-12 OVMax= 3.96D-07

 Cycle  16  Pass 1  IDiag  1:
 RMSU=  4.07D-09    CP:  5.93D-01  8.50D-01  7.15D-01  7.99D-01  1.22D+00
                    CP:  1.11D+00  1.13D+00  1.39D+00  1.41D+00  1.37D+00
                    CP:  1.41D+00  1.16D+00  1.62D+00  1.59D+00  1.26D+00
 E= -420.731429906830     Delta-E=        0.000000000001 Rises=F Damp=F
 DIIS: error= 7.97D-09 at cycle  16 NSaved=  16.
 NSaved=16 IEnMin=15 EnMin= -420.731429906831     IErMin=16 ErrMin= 7.97D-09
 ErrMax= 7.97D-09  0.00D+00 EMaxC= 1.00D-01 BMatC= 6.08D-15 BMatP= 4.95D-14
 IDIUse=1 WtCom= 1.00D+00 WtEn= 0.00D+00
 Coeff-Com: -0.100D-07 0.284D-07 0.181D-06 0.349D-05 0.185D-04 0.174D-04
 Coeff-Com: -0.113D-03-0.406D-03-0.201D-03 0.319D-02 0.820D-02-0.197D-02
 Coeff-Com: -0.631D-01-0.436D-01 0.266D+00 0.832D+00
 Coeff:     -0.100D-07 0.284D-07 0.181D-06 0.349D-05 0.185D-04 0.174D-04
 Coeff:     -0.113D-03-0.406D-03-0.201D-03 0.319D-02 0.820D-02-0.197D-02
 Coeff:     -0.631D-01-0.436D-01 0.266D+00 0.832D+00
 Gap=     0.343 Goal=   None    Shift=    0.000
 RMSDP=5.30D-09 MaxDP=4.53D-07 DE= 9.09D-13 OVMax= 1.19D-07

 SCF Done:  E(RwB97XD) =  -420.731429907     A.U. after   16 cycles
            NFock= 16  Conv=0.53D-08     -V/T= 2.0014
 KE= 4.201474732966D+02 PE=-1.802983020867D+03 EE= 5.523756107010D+02
 Leave Link  502 at Sun Nov 20 17:26:07 2022, MaxMem= 16106127360 cpu:             434.6 elap:              13.6
 (Enter /opt/ap/G16/B01/g16/l601.exe)
 Copying SCF densities to generalized density rwf, IOpCl= 0 IROHF=0.

 **********************************************************************

            Population analysis using the SCF Density.

 **********************************************************************

 Orbital symmetries:
       Occupied  (A) (A) (A) (A) (A) (A) (A) (A) (A) (A) (A) (A)
                 (A) (A) (A) (A) (A) (A) (A) (A) (A) (A) (A) (A)
                 (A) (A) (A) (A) (A) (A) (A) (A)
       Virtual   (A) (A) (A) (A) (A) (A) (A) (A) (A) (A) (A) (A)
                 (A) (A) (A) (A) (A) (A) (A) (A) (A) (A) (A) (A)
                 (A) (A) (A) (A) (A) (A) (A) (A) (A) (A) (A) (A)
                 (A) (A) (A) (A) (A) (A) (A) (A) (A) (A) (A) (A)
                 (A) (A) (A) (A) (A) (A) (A) (A) (A) (A) (A) (A)
                 (A) (A) (A) (A) (A) (A) (A) (A) (A) (A) (A) (A)
                 (A) (A) (A) (A) (A) (A) (A) (A) (A) (A) (A) (A)
                 (A) (A) (A) (A) (A) (A) (A) (A) (A) (A) (A) (A)
                 (A) (A) (A) (A) (A) (A) (A) (A) (A) (A) (A) (A)
                 (A) (A) (A) (A) (A) (A) (A) (A) (A) (A) (A) (A)
                 (A) (A) (A) (A) (A) (A) (A) (A) (A) (A) (A) (A)
                 (A) (A) (A) (A) (A) (A) (A) (A) (A) (A) (A) (A)
                 (A) (A) (A) (A) (A) (A) (A) (A) (A) (A) (A) (A)
                 (A) (A) (A) (A) (A) (A) (A) (A) (A) (A) (A) (A)
                 (A) (A) (A) (A) (A) (A) (A) (A) (A) (A) (A) (A)
                 (A) (A) (A) (A) (A) (A) (A) (A) (A) (A) (A) (A)
                 (A) (A) (A) (A) (A) (A) (A) (A) (A) (A) (A) (A)
                 (A) (A) (A) (A)
 The electronic state is 1-A.
 Alpha  occ. eigenvalues --  -19.30281 -19.23377 -10.43194 -10.30913 -10.29473
 Alpha  occ. eigenvalues --  -10.29375 -10.29346 -10.29112 -10.28884  -1.25100
 Alpha  occ. eigenvalues --   -1.10888  -0.98158  -0.88725  -0.87137  -0.79854
 Alpha  occ. eigenvalues --   -0.73519  -0.72385  -0.66305  -0.61226  -0.58427
 Alpha  occ. eigenvalues --   -0.56807  -0.56101  -0.53836  -0.53608  -0.48114
 Alpha  occ. eigenvalues --   -0.47268  -0.45285  -0.43930  -0.41900  -0.36227
 Alpha  occ. eigenvalues --   -0.34784  -0.34430
 Alpha virt. eigenvalues --   -0.00130   0.03476   0.04122   0.04446   0.05234
 Alpha virt. eigenvalues --    0.06518   0.07794   0.08732   0.10103   0.10584
 Alpha virt. eigenvalues --    0.11758   0.12902   0.13224   0.14043   0.14487
 Alpha virt. eigenvalues --    0.15962   0.16319   0.16923   0.17254   0.17890
 Alpha virt. eigenvalues --    0.18228   0.19196   0.19922   0.19986   0.20441
 Alpha virt. eigenvalues --    0.21104   0.21440   0.21833   0.23148   0.24170
 Alpha virt. eigenvalues --    0.25453   0.26116   0.26789   0.27232   0.27869
 Alpha virt. eigenvalues --    0.29662   0.29934   0.30613   0.31126   0.32352
 Alpha virt. eigenvalues --    0.32461   0.34430   0.34978   0.35520   0.35883
 Alpha virt. eigenvalues --    0.36360   0.37309   0.38268   0.39191   0.40103
 Alpha virt. eigenvalues --    0.41568   0.42004   0.42593   0.43971   0.46324
 Alpha virt. eigenvalues --    0.47051   0.49776   0.53542   0.54734   0.57912
 Alpha virt. eigenvalues --    0.58907   0.60275   0.61836   0.63125   0.63732
 Alpha virt. eigenvalues --    0.64273   0.64955   0.65908   0.66508   0.69262
 Alpha virt. eigenvalues --    0.70620   0.73266   0.73944   0.74232   0.75637
 Alpha virt. eigenvalues --    0.76555   0.80939   0.82429   0.83596   0.86085
 Alpha virt. eigenvalues --    0.88510   0.90357   0.92661   0.93624   0.94667
 Alpha virt. eigenvalues --    0.96265   0.96436   0.97920   0.99779   1.00473
 Alpha virt. eigenvalues --    1.03197   1.06451   1.07959   1.09868   1.10268
 Alpha virt. eigenvalues --    1.14341   1.14597   1.16336   1.16812   1.19011
 Alpha virt. eigenvalues --    1.21266   1.21854   1.24348   1.28489   1.29140
 Alpha virt. eigenvalues --    1.34365   1.42094   1.44497   1.45733   1.52743
 Alpha virt. eigenvalues --    1.57325   1.59212   1.60536   1.60834   1.62184
 Alpha virt. eigenvalues --    1.63234   1.66708   1.67016   1.68554   1.74503
 Alpha virt. eigenvalues --    1.74852   1.76481   1.80050   1.83666   1.86505
 Alpha virt. eigenvalues --    1.87965   1.89622   1.91586   1.92972   2.00012
 Alpha virt. eigenvalues --    2.00239   2.01659   2.03299   2.04389   2.04901
 Alpha virt. eigenvalues --    2.07954   2.09625   2.16041   2.17885   2.20217
 Alpha virt. eigenvalues --    2.22959   2.25241   2.29414   2.42769   2.46098
 Alpha virt. eigenvalues --    2.51682   2.52675   2.54361   2.58121   2.61520
 Alpha virt. eigenvalues --    2.70649   2.72183   2.75834   2.78204   2.81188
 Alpha virt. eigenvalues --    2.81608   2.83129   2.88154   2.89776   2.90344
 Alpha virt. eigenvalues --    2.90551   2.91743   2.96139   2.99583   2.99976
 Alpha virt. eigenvalues --    3.03649   3.05155   3.06487   3.16402   3.18632
 Alpha virt. eigenvalues --    3.18718   3.22271   3.28126   3.31844   3.39602
 Alpha virt. eigenvalues --    3.43043   3.46427   3.48854   3.51735   3.63071
 Alpha virt. eigenvalues --    3.66415   3.68388   3.73854   3.84433   3.87838
 Alpha virt. eigenvalues --    3.97444   4.18059   4.28494   4.30607   4.36745
 Alpha virt. eigenvalues --    4.40398   4.44947   4.94817   5.15379   5.17853
 Alpha virt. eigenvalues --    5.30358   5.45147   5.82274   6.07698  23.83831
 Alpha virt. eigenvalues --   23.95135  24.14093  24.21241  24.28247  24.30287
 Alpha virt. eigenvalues --   24.41697  50.04959  50.16460
          Condensed to atoms (all electrons):
               1          2          3          4          5          6
     1  C   10.197028  -2.428112  -2.303174   1.783100  -0.022216  -1.984922
     2  C   -2.428112  14.783480  -1.532226  -4.430784   0.641366  -0.485465
     3  C   -2.303174  -1.532226  13.862928  -0.406976  -0.071495  -0.239132
     4  C    1.783100  -4.430784  -0.406976   8.570652  -0.111666  -0.202703
     5  H   -0.022216   0.641366  -0.071495  -0.111666   0.488936  -0.106055
     6  C   -1.984922  -0.485465  -0.239132  -0.202703  -0.106055   8.072178
     7  C    1.276965  -0.469413  -4.352838   0.978479   0.032049  -0.049645
     8  H   -0.053997   0.011204   0.557427  -0.009215  -0.000655  -0.040363
     9  C   -1.246804   1.159740   1.327901  -0.750000   0.010726   0.063686
    10  H    0.030833  -0.115854   0.021342   0.432379  -0.011276   0.011489
    11  O   -0.257217  -0.201547   0.021680   0.055309  -0.037540   0.428710
    12  O   -0.209221  -0.069969  -0.087679   0.053298  -0.004844   0.594389
    13  H    0.033220   0.014062  -0.139866   0.000543   0.000691   0.007635
    14  H    0.012742   0.008952   0.008766  -0.051075   0.000323  -0.008368
    15  H   -0.008211  -0.006562  -0.001134  -0.011304  -0.001949   0.022125
               7          8          9         10         11         12
     1  C    1.276965  -0.053997  -1.246804   0.030833  -0.257217  -0.209221
     2  C   -0.469413   0.011204   1.159740  -0.115854  -0.201547  -0.069969
     3  C   -4.352838   0.557427   1.327901   0.021342   0.021680  -0.087679
     4  C    0.978479  -0.009215  -0.750000   0.432379   0.055309   0.053298
     5  H    0.032049  -0.000655   0.010726  -0.011276  -0.037540  -0.004844
     6  C   -0.049645  -0.040363   0.063686   0.011489   0.428710   0.594389
     7  C    8.992158  -0.112520  -0.885383  -0.007976   0.043842   0.137229
     8  H   -0.112520   0.430243   0.019841   0.000563  -0.003781  -0.006801
     9  C   -0.885383   0.019841   6.482103  -0.039172  -0.026570  -0.021703
    10  H   -0.007976   0.000563  -0.039172   0.471837   0.003314   0.000580
    11  O    0.043842  -0.003781  -0.026570   0.003314   7.994319  -0.117261
    12  O    0.137229  -0.006801  -0.021703   0.000580  -0.117261   8.029327
    13  H    0.452611  -0.008472  -0.034964  -0.001059   0.000928   0.002005
    14  H   -0.041039   0.000278   0.426413  -0.007007  -0.000506  -0.000386
    15  H    0.009512  -0.000434  -0.002946   0.000014   0.304352   0.003455
              13         14         15
     1  C    0.033220   0.012742  -0.008211
     2  C    0.014062   0.008952  -0.006562
     3  C   -0.139866   0.008766  -0.001134
     4  C    0.000543  -0.051075  -0.011304
     5  H    0.000691   0.000323  -0.001949
     6  C    0.007635  -0.008368   0.022125
     7  C    0.452611  -0.041039   0.009512
     8  H   -0.008472   0.000278  -0.000434
     9  C   -0.034964   0.426413  -0.002946
    10  H   -0.001059  -0.007007   0.000014
    11  O    0.000928  -0.000506   0.304352
    12  O    0.002005  -0.000386   0.003455
    13  H    0.464353  -0.006277   0.000091
    14  H   -0.006277   0.469642  -0.000069
    15  H    0.000091  -0.000069   0.370104
 Mulliken charges:
               1
     1  C    1.179986
     2  C   -0.878872
     3  C   -0.665524
     4  C    0.099964
     5  H    0.193605
     6  C   -0.083558
     7  C   -0.004031
     8  H    0.216684
     9  C   -0.482867
    10  H    0.209994
    11  O   -0.208030
    12  O   -0.302419
    13  H    0.214500
    14  H    0.187611
    15  H    0.322958
 Sum of Mulliken charges =  -0.00000
 Mulliken charges with hydrogens summed into heavy atoms:
               1
     1  C    1.179986
     2  C   -0.685267
     3  C   -0.448840
     4  C    0.309958
     6  C   -0.083558
     7  C    0.210469
     9  C   -0.295257
    11  O    0.114928
    12  O   -0.302419
 Electronic spatial extent (au):  <R**2>=           1155.1745
 Charge=             -0.0000 electrons
 Dipole moment (field-independent basis, Debye):
    X=              2.0941    Y=             -2.4848    Z=              1.2627  Tot=              3.4862
 Quadrupole moment (field-independent basis, Debye-Ang):
   XX=            -48.3048   YY=            -48.7462   ZZ=            -52.9985
   XY=              7.9909   XZ=             -4.0905   YZ=             -2.0054
 Traceless Quadrupole moment (field-independent basis, Debye-Ang):
   XX=              1.7117   YY=              1.2704   ZZ=             -2.9820
   XY=              7.9909   XZ=             -4.0905   YZ=             -2.0054
 Octapole moment (field-independent basis, Debye-Ang**2):
  XXX=              3.3927  YYY=             -5.9198  ZZZ=              0.9862  XYY=              4.7236
  XXY=            -23.5470  XXZ=             12.4765  XZZ=            -14.2362  YZZ=             -1.6675
  YYZ=              2.6691  XYZ=              6.1402
 Hexadecapole moment (field-independent basis, Debye-Ang**3):
 XXXX=           -968.6643 YYYY=           -356.8616 ZZZZ=            -58.6875 XXXY=             72.4476
 XXXZ=            -38.2297 YYYX=             20.8292 YYYZ=             -4.3442 ZZZX=             -3.9732
 ZZZY=             -1.9577 XXYY=           -228.5090 XXZZ=           -185.0988 YYZZ=            -77.4338
 XXYZ=            -17.4274 YYXZ=             -7.9130 ZZXY=              5.4624
 N-N= 4.097285069622D+02 E-N=-1.802983020389D+03  KE= 4.201474732966D+02
 No NMR shielding tensors so no spin-rotation constants.
 Leave Link  601 at Sun Nov 20 17:26:07 2022, MaxMem= 16106127360 cpu:               3.3 elap:               0.1
 (Enter /opt/ap/G16/B01/g16/l9999.exe)
 1\1\GINC-N04\SP\RwB97XD\6-311++G(d,p)\C7H6O2\ROOT\20-Nov-2022\0\\#P wB
 97XD/6-311++G(d,p) scf=maxcycle=512\\_conf005.gjf nmol_natom 1_15\\0,1
 \C\C,1,1.39016191\C,1,1.39194539,2,119.895942\C,2,1.38669027,1,119.880
 75721,3,0.70825972,0\H,2,0.98744251,1,119.71654057,3,-179.90726164,0\C
 ,1,1.48428757,2,119.93615286,4,-179.87772406,0\C,3,1.40101108,1,119.72
 36454,2,-0.26266839,0\H,3,0.9902154,1,119.1886159,2,178.85397616,0\C,4
 ,1.37899003,2,120.45785903,1,-0.48041454,0\H,4,0.9834739,2,120.3044270
 6,1,179.36166981,0\O,6,1.27459751,1,118.00615353,2,-1.25976832,0\O,6,1
 .26362572,1,118.77715367,2,179.20603801,0\H,7,0.98977053,3,119.3786157
 8,1,-178.93545741,0\H,9,0.99498061,4,119.46722635,2,-178.58826714,0\H,
 11,0.89680392,6,118.15823763,1,-245.,0\\Version=ES64L-G16RevB.01\State
 =1-A\HF=-420.7314299\RMSD=5.295e-09\Dipole=0.261228,0.5030602,1.248966
 7\Quadrupole=6.1440618,-2.1899424,-3.9541194,-3.4377268,-3.0911481,-0.
 1339074\PG=C01 [X(C7H6O2)]\\@


 DEMOCRATS BUY MOST OF THE BOOKS THAT HAVE BEEN
 BANNED; REPUBLICANS FORM CENSORSHIP COMMITTEES AND
 READ THEM AS A GROUP.
 Job cpu time:       0 days  0 hours  7 minutes 47.7 seconds.
 Elapsed time:       0 days  0 hours  0 minutes 14.7 seconds.
 File lengths (MBytes):  RWF=     35 Int=      0 D2E=      0 Chk=      4 Scr=      1
 Normal termination of Gaussian 16 at Sun Nov 20 17:26:07 2022.
