 Entering Gaussian System, Link 0=g16
 Input=_conf020.gjf
 Output=_conf020.log
 Initial command:
 /opt/ap/G16/B01/g16/l1.exe "/tmp2/scr/Gau-6898.inp" -scrdir="/tmp2/scr/"
 Entering Link 1 = /opt/ap/G16/B01/g16/l1.exe PID=      6899.
  
 Copyright (c) 1988-2017, Gaussian, Inc.  All Rights Reserved.
  
 This is part of the Gaussian(R) 16 program.  It is based on
 the Gaussian(R) 09 system (copyright 2009, Gaussian, Inc.),
 the Gaussian(R) 03 system (copyright 2003, Gaussian, Inc.),
 the Gaussian(R) 98 system (copyright 1998, Gaussian, Inc.),
 the Gaussian(R) 94 system (copyright 1995, Gaussian, Inc.),
 the Gaussian 92(TM) system (copyright 1992, Gaussian, Inc.),
 the Gaussian 90(TM) system (copyright 1990, Gaussian, Inc.),
 the Gaussian 88(TM) system (copyright 1988, Gaussian, Inc.),
 the Gaussian 86(TM) system (copyright 1986, Carnegie Mellon
 University), and the Gaussian 82(TM) system (copyright 1983,
 Carnegie Mellon University). Gaussian is a federally registered
 trademark of Gaussian, Inc.
  
 This software contains proprietary and confidential information,
 including trade secrets, belonging to Gaussian, Inc.
  
 This software is provided under written license and may be
 used, copied, transmitted, or stored only in accord with that
 written license.
  
 The following legend is applicable only to US Government
 contracts under FAR:
  
                    RESTRICTED RIGHTS LEGEND
  
 Use, reproduction and disclosure by the US Government is
 subject to restrictions as set forth in subparagraphs (a)
 and (c) of the Commercial Computer Software - Restricted
 Rights clause in FAR 52.227-19.
  
 Gaussian, Inc.
 340 Quinnipiac St., Bldg. 40, Wallingford CT 06492
  
  
 ---------------------------------------------------------------
 Warning -- This program may not be used in any manner that
 competes with the business of Gaussian, Inc. or will provide
 assistance to any competitor of Gaussian, Inc.  The licensee
 of this program is prohibited from giving any competitor of
 Gaussian, Inc. access to this program.  By using this program,
 the user acknowledges that Gaussian, Inc. is engaged in the
 business of creating and licensing software in the field of
 computational chemistry and represents and warrants to the
 licensee that it is not a competitor of Gaussian, Inc. and that
 it will not use this program in any manner prohibited above.
 ---------------------------------------------------------------
  

 Cite this work as:
 Gaussian 16, Revision B.01,
 M. J. Frisch, G. W. Trucks, H. B. Schlegel, G. E. Scuseria, 
 M. A. Robb, J. R. Cheeseman, G. Scalmani, V. Barone, 
 G. A. Petersson, H. Nakatsuji, X. Li, M. Caricato, A. V. Marenich, 
 J. Bloino, B. G. Janesko, R. Gomperts, B. Mennucci, H. P. Hratchian, 
 J. V. Ortiz, A. F. Izmaylov, J. L. Sonnenberg, D. Williams-Young, 
 F. Ding, F. Lipparini, F. Egidi, J. Goings, B. Peng, A. Petrone, 
 T. Henderson, D. Ranasinghe, V. G. Zakrzewski, J. Gao, N. Rega, 
 G. Zheng, W. Liang, M. Hada, M. Ehara, K. Toyota, R. Fukuda, 
 J. Hasegawa, M. Ishida, T. Nakajima, Y. Honda, O. Kitao, H. Nakai, 
 T. Vreven, K. Throssell, J. A. Montgomery, Jr., J. E. Peralta, 
 F. Ogliaro, M. J. Bearpark, J. J. Heyd, E. N. Brothers, K. N. Kudin, 
 V. N. Staroverov, T. A. Keith, R. Kobayashi, J. Normand, 
 K. Raghavachari, A. P. Rendell, J. C. Burant, S. S. Iyengar, 
 J. Tomasi, M. Cossi, J. M. Millam, M. Klene, C. Adamo, R. Cammi, 
 J. W. Ochterski, R. L. Martin, K. Morokuma, O. Farkas, 
 J. B. Foresman, and D. J. Fox, Gaussian, Inc., Wallingford CT, 2016.
 
 ******************************************
 Gaussian 16:  ES64L-G16RevB.01 20-Dec-2017
                20-Nov-2022 
 ******************************************
 %nprocshared=32
 Will use up to   32 processors via shared memory.
 %mem=120GB
 %chk=_conf020.chk
 ----------------------------------------
 #P wB97XD/6-311++G(d,p) scf=maxcycle=512
 ----------------------------------------
 1/38=1,172=1/1;
 2/12=2,17=6,18=5,40=1/2;
 3/5=4,6=6,7=1111,11=2,25=1,30=1,74=-58/1,2,3;
 4//1;
 5/5=2,7=512,38=5/2;
 6/7=2,8=2,9=2,10=2,28=1/1;
 99/5=1,9=1/99;
 Leave Link    1 at Sun Nov 20 17:26:55 2022, MaxMem= 16106127360 cpu:               2.4 elap:               0.1
 (Enter /opt/ap/G16/B01/g16/l101.exe)
 ----------------------------
 _conf020.gjf nmol_natom 1_15
 ----------------------------
 Symbolic Z-matrix:
 Charge =  0 Multiplicity = 1
 C
 C                    1     1.39016 
 C                    1     1.39195  2     119.89594 
 C                    2     1.38669  1     119.88076  3     0.70826  0
 H                    2     0.98744  1     119.71654  3    -179.90726  0
 C                    1     1.48429  2     119.93615  4    -179.87772  0
 C                    3     1.40101  1     119.72365  2    -0.26267  0
 H                    3     0.99022  1     119.18862  2     178.85398  0
 C                    4     1.37899  2     120.45786  1    -0.48041  0
 H                    4     0.98347  2     120.30443  1     179.36167  0
 O                    6     1.2746   1     118.00615  2    -1.25977  0
 O                    6     1.26363  1     118.77715  2     179.20604  0
 H                    7     0.98977  3     119.37862  1    -178.93546  0
 H                    9     0.99498  4     119.46723  2    -178.58827  0
 H                    11    0.8968   6     118.15824  1    -170.     0
 
 ITRead=  0  0  0  0  0  0  0  0  0  0  0  0  0  0  0
 MicOpt= -1 -1 -1 -1 -1 -1 -1 -1 -1 -1 -1 -1 -1 -1 -1
 NAtoms=     15 NQM=       15 NQMF=       0 NMMI=      0 NMMIF=      0
                NMic=       0 NMicF=      0.
                    Isotopes and Nuclear Properties:
 (Nuclear quadrupole moments (NQMom) in fm**2, nuclear magnetic moments (NMagM)
  in nuclear magnetons)

  Atom         1           2           3           4           5           6           7           8           9          10
 IAtWgt=          12          12          12          12           1          12          12           1          12           1
 AtmWgt=  12.0000000  12.0000000  12.0000000  12.0000000   1.0078250  12.0000000  12.0000000   1.0078250  12.0000000   1.0078250
 NucSpn=           0           0           0           0           1           0           0           1           0           1
 AtZEff=  -0.0000000  -0.0000000  -0.0000000  -0.0000000  -0.0000000  -0.0000000  -0.0000000  -0.0000000  -0.0000000  -0.0000000
 NQMom=    0.0000000   0.0000000   0.0000000   0.0000000   0.0000000   0.0000000   0.0000000   0.0000000   0.0000000   0.0000000
 NMagM=    0.0000000   0.0000000   0.0000000   0.0000000   2.7928460   0.0000000   0.0000000   2.7928460   0.0000000   2.7928460
 AtZNuc=   6.0000000   6.0000000   6.0000000   6.0000000   1.0000000   6.0000000   6.0000000   1.0000000   6.0000000   1.0000000

  Atom        11          12          13          14          15
 IAtWgt=          16          16           1           1           1
 AtmWgt=  15.9949146  15.9949146   1.0078250   1.0078250   1.0078250
 NucSpn=           0           0           1           1           1
 AtZEff=  -0.0000000  -0.0000000  -0.0000000  -0.0000000  -0.0000000
 NQMom=    0.0000000   0.0000000   0.0000000   0.0000000   0.0000000
 NMagM=    0.0000000   0.0000000   2.7928460   2.7928460   2.7928460
 AtZNuc=   8.0000000   8.0000000   1.0000000   1.0000000   1.0000000
 Leave Link  101 at Sun Nov 20 17:26:56 2022, MaxMem= 16106127360 cpu:               5.3 elap:               0.2
 (Enter /opt/ap/G16/B01/g16/l202.exe)
                          Input orientation:                          
 ---------------------------------------------------------------------
 Center     Atomic      Atomic             Coordinates (Angstroms)
 Number     Number       Type             X           Y           Z
 ---------------------------------------------------------------------
      1          6           0        0.000000    0.000000    0.000000
      2          6           0        0.000000    0.000000    1.390162
      3          6           0        1.206722    0.000000   -0.693782
      4          6           0        1.202258    0.014862    2.081006
      5          1           0       -0.857581   -0.001388    1.879646
      6          6           0       -1.286190   -0.013155   -0.740711
      7          6           0        2.415349    0.005578    0.014752
      8          1           0        1.194584   -0.017290   -1.683772
      9          6           0        2.400563    0.019708    1.398617
     10          1           0        1.209438    0.024411    3.064408
     11          8           0       -2.365984   -0.048941   -0.064425
     12          8           0       -1.260842    0.002453   -2.003986
     13          1           0        3.270315    0.021574   -0.483669
     14          1           0        3.254554    0.009066    1.909081
     15          1           0       -3.134994   -0.194254   -0.502334
 ---------------------------------------------------------------------
                    Distance matrix (angstroms):
                    1          2          3          4          5
     1  C    0.000000
     2  C    1.390162   0.000000
     3  C    1.391945   2.408112   0.000000
     4  C    2.403379   1.386690   2.774832   0.000000
     5  H    2.066039   0.987443   3.299073   2.069721   0.000000
     6  C    1.484288   2.488991   2.493388   3.762345   2.655206
     7  C    2.415401   2.779513   1.401011   2.396056   3.766955
     8  H    2.064563   3.297939   0.990215   3.764924   4.112127
     9  C    2.778349   2.400659   2.409104   1.378990   3.293530
    10  H    3.294530   2.065535   3.758270   0.983474   2.382624
    11  O    2.367367   2.777786   3.628045   4.164047   2.461088
    12  O    2.367633   3.620769   2.793834   4.770133   3.904515
    13  H    3.305958   3.769173   2.074374   3.294611   4.756607
    14  H    3.773167   3.295676   3.311886   2.059493   4.112253
    15  H    3.180922   3.667078   4.350274   5.052636   3.301157
                    6          7          8          9         10
     6  C    0.000000
     7  C    3.777892   0.000000
     8  H    2.653982   2.091836   0.000000
     9  C    4.262622   1.384016   3.310118   0.000000
    10  H    4.550659   3.279477   4.748386   2.047842   0.000000
    11  O    1.274598   4.782299   3.911641   4.986499   4.751696
    12  O    1.263626   4.194007   2.476296   4.998389   5.638384
    13  H    4.563881   0.989771   2.398003   2.073517   4.103177
    14  H    5.257398   2.071897   4.141589   0.994981   2.348938
    15  H    1.872885   5.577959   4.491365   5.856773   5.625260
                   11         12         13         14         15
    11  O    0.000000
    12  O    2.232908   0.000000
    13  H    5.652309   4.779447   0.000000
    14  H    5.957225   5.975025   2.392834   0.000000
    15  H    0.896804   2.409585   6.408971   6.832465   0.000000
 Stoichiometry    C7H6O2
 Framework group  C1[X(C7H6O2)]
 Deg. of freedom    39
 Full point group                 C1      NOp   1
 Largest Abelian subgroup         C1      NOp   1
 Largest concise Abelian subgroup C1      NOp   1
                         Standard orientation:                         
 ---------------------------------------------------------------------
 Center     Atomic      Atomic             Coordinates (Angstroms)
 Number     Number       Type             X           Y           Z
 ---------------------------------------------------------------------
      1          6           0        0.220755    0.028217   -0.007844
      2          6           0       -0.443465   -1.192995   -0.009519
      3          6           0       -0.507748    1.214194    0.008059
      4          6           0       -1.829777   -1.225395   -0.010200
      5          1           0        0.075978   -2.032711   -0.019428
      6          6           0        1.704602    0.064337   -0.009858
      7          6           0       -1.908011    1.169231    0.016720
      8          1           0       -0.023888    2.077948    0.026389
      9          6           0       -2.556381   -0.053414    0.000738
     10          1           0       -2.306054   -2.085784   -0.020844
     11          8           0        2.330342   -1.045882    0.011628
     12          8           0        2.285768    1.186303   -0.023626
     13          1           0       -2.421038    2.015651    0.012000
     14          1           0       -3.550321   -0.093919    0.021429
     15          1           0        3.216590   -1.029609    0.147855
 ---------------------------------------------------------------------
 Rotational constants (GHZ):           3.9680277           1.2389689           0.9443165
 Leave Link  202 at Sun Nov 20 17:26:56 2022, MaxMem= 16106127360 cpu:               0.2 elap:               0.0
 (Enter /opt/ap/G16/B01/g16/l301.exe)
 Standard basis: 6-311++G(d,p) (5D, 7F)
 Ernie: Thresh=  0.10000D-02 Tol=  0.10000D-05 Strict=F.
 There are   249 symmetry adapted cartesian basis functions of A   symmetry.
 There are   240 symmetry adapted basis functions of A   symmetry.
   240 basis functions,   378 primitive gaussians,   249 cartesian basis functions
    32 alpha electrons       32 beta electrons
       nuclear repulsion energy       409.5647743626 Hartrees.
 IExCor= 4639 DFT=T Ex+Corr=wB97XD ExCW=0 ScaHFX=  1.000000
 ScaDFX=  1.000000  1.000000  1.000000  1.000000 ScalE2=  1.000000  1.000000
 IRadAn=      5 IRanWt=     -1 IRanGd=            0 ICorTp=0 IEmpDi=121
 HFx  wShort=  0.000000 wLong=  0.200000 cFull=  0.222036 cShort=  0.000000 cLong=  0.777964
 DFx  wShort=  0.000000 wLong=  0.200000 cFull=  0.000000 cShort=  0.000000 cLong=  1.000000
 NAtoms=   15 NActive=   15 NUniq=   15 SFac= 1.00D+00 NAtFMM=   60 NAOKFM=F Big=F
 Integral buffers will be    131072 words long.
 Raffenetti 2 integral format.
 Two-electron integral symmetry is turned on.
 R6Disp:  Grimme-D2 Dispersion energy=       -0.0063288375 Hartrees.
 Nuclear repulsion after empirical dispersion term =      409.5584455251 Hartrees.
 Leave Link  301 at Sun Nov 20 17:26:56 2022, MaxMem= 16106127360 cpu:               1.3 elap:               0.0
 (Enter /opt/ap/G16/B01/g16/l302.exe)
 NPDir=0 NMtPBC=     1 NCelOv=     1 NCel=       1 NClECP=     1 NCelD=      1
         NCelK=      1 NCelE2=     1 NClLst=     1 CellRange=     0.0.
 One-electron integrals computed using PRISM.
 One-electron integral symmetry used in STVInt
 NBasis=   240 RedAO= T EigKep=  1.21D-06  NBF=   240
 NBsUse=   240 1.00D-06 EigRej= -1.00D+00 NBFU=   240
 Precomputing XC quadrature grid using
 IXCGrd= 4 IRadAn=           5 IRanWt=          -1 IRanGd=           0 AccXCQ= 0.00D+00.
 Generated NRdTot=       0 NPtTot=           0 NUsed=           0 NTot=          32
 NSgBfM=   249   249   249   249   249 MxSgAt=    15 MxSgA2=    15.
 Leave Link  302 at Sun Nov 20 17:26:56 2022, MaxMem= 16106127360 cpu:               5.4 elap:               0.2
 (Enter /opt/ap/G16/B01/g16/l303.exe)
 DipDrv:  MaxL=1.
 Leave Link  303 at Sun Nov 20 17:26:56 2022, MaxMem= 16106127360 cpu:               1.2 elap:               0.0
 (Enter /opt/ap/G16/B01/g16/l401.exe)
 ExpMin= 3.60D-02 ExpMax= 8.59D+03 ExpMxC= 1.30D+03 IAcc=3 IRadAn=         5 AccDes= 0.00D+00
 Harris functional with IExCor= 4639 and IRadAn=       5 diagonalized for initial guess.
 HarFok:  IExCor= 4639 AccDes= 0.00D+00 IRadAn=         5 IDoV= 1 UseB2=F ITyADJ=14
 ICtDFT=  3500011 ScaDFX=  1.000000  1.000000  1.000000  1.000000
 FoFCou: FMM=F IPFlag=           0 FMFlag=      100000 FMFlg1=           0
         NFxFlg=           0 DoJE=T BraDBF=F KetDBF=T FulRan=T
         wScrn=  0.000000 ICntrl=       500 IOpCl=  0 I1Cent=   200000004 NGrid=           0
         NMat0=    1 NMatS0=      1 NMatT0=    0 NMatD0=    1 NMtDS0=    0 NMtDT0=    0
 Petite list used in FoFCou.
 Harris En= -403.254463540554    
 JPrj=0 DoOrth=F DoCkMO=F.
 Leave Link  401 at Sun Nov 20 17:26:56 2022, MaxMem= 16106127360 cpu:              11.6 elap:               0.4
 (Enter /opt/ap/G16/B01/g16/l502.exe)
 Integral symmetry usage will be decided dynamically.
 Closed shell SCF:
 Using DIIS extrapolation, IDIIS=  1040.
 NGot= 16106127360 LenX= 16105992971 LenY= 16105930529
 Requested convergence on RMS density matrix=1.00D-08 within 512 cycles.
 Requested convergence on MAX density matrix=1.00D-06.
 Requested convergence on             energy=1.00D-06.
 No special actions if energy rises.
 Fock matrices will be formed incrementally for  20 cycles.

 Cycle   1  Pass 1  IDiag  1:
 FoFJK:  IHMeth= 1 ICntrl=       0 DoSepK=T KAlg= 0 I1Cent=           0 FoldK=F
 IRaf=         1 NMat=       1 IRICut=       1 DoRegI=T DoRafI=F ISym2E= 0 IDoP0=0 IntGTp=1.
 FoFCou: FMM=F IPFlag=           0 FMFlag=      100000 FMFlg1=           0
         NFxFlg=           0 DoJE=T BraDBF=F KetDBF=F FulRan=T
         wScrn=  0.000000 ICntrl=       500 IOpCl=  0 I1Cent=           0 NGrid=           0
         NMat0=    1 NMatS0=      1 NMatT0=    0 NMatD0=    1 NMtDS0=    0 NMtDT0=    0
 Symmetry not used in FoFCou.
 E= -420.632305279293    
 DIIS: error= 8.21D-02 at cycle   1 NSaved=   1.
 NSaved= 1 IEnMin= 1 EnMin= -420.632305279293     IErMin= 1 ErrMin= 8.21D-02
 ErrMax= 8.21D-02  0.00D+00 EMaxC= 1.00D-01 BMatC= 8.61D-01 BMatP= 8.61D-01
 IDIUse=3 WtCom= 1.79D-01 WtEn= 8.21D-01
 Coeff-Com:  0.100D+01
 Coeff-En:   0.100D+01
 Coeff:      0.100D+01
 Gap=     0.427 Goal=   None    Shift=    0.000
 GapD=    0.427 DampG=2.000 DampE=0.500 DampFc=1.0000 IDamp=-1.
 RMSDP=3.29D-02 MaxDP=2.97D+00              OVMax= 1.09D-01

 Cycle   2  Pass 1  IDiag  1:
 RMSU=  1.42D-02    CP:  6.75D-01
 E= -420.703175929999     Delta-E=       -0.070870650705 Rises=F Damp=F
 DIIS: error= 1.57D-02 at cycle   2 NSaved=   2.
 NSaved= 2 IEnMin= 2 EnMin= -420.703175929999     IErMin= 2 ErrMin= 1.57D-02
 ErrMax= 1.57D-02  0.00D+00 EMaxC= 1.00D-01 BMatC= 5.71D-02 BMatP= 8.61D-01
 IDIUse=3 WtCom= 8.43D-01 WtEn= 1.57D-01
 Coeff-Com:  0.135D+00 0.865D+00
 Coeff-En:   0.975D-01 0.902D+00
 Coeff:      0.129D+00 0.871D+00
 Gap=     0.424 Goal=   None    Shift=    0.000
 RMSDP=7.31D-03 MaxDP=3.36D-01 DE=-7.09D-02 OVMax= 7.69D-02

 Cycle   3  Pass 1  IDiag  1:
 RMSU=  6.83D-03    CP:  6.63D-01  8.33D-01
 E= -420.719409491466     Delta-E=       -0.016233561468 Rises=F Damp=F
 DIIS: error= 1.69D-02 at cycle   3 NSaved=   3.
 NSaved= 3 IEnMin= 3 EnMin= -420.719409491466     IErMin= 2 ErrMin= 1.57D-02
 ErrMax= 1.69D-02  0.00D+00 EMaxC= 1.00D-01 BMatC= 3.57D-02 BMatP= 5.71D-02
 IDIUse=3 WtCom= 8.31D-01 WtEn= 1.69D-01
 Coeff-Com:  0.275D-01 0.447D+00 0.526D+00
 Coeff-En:   0.000D+00 0.383D+00 0.617D+00
 Coeff:      0.229D-01 0.436D+00 0.541D+00
 Gap=     0.360 Goal=   None    Shift=    0.000
 RMSDP=4.23D-03 MaxDP=3.86D-01 DE=-1.62D-02 OVMax= 5.38D-02

 Cycle   4  Pass 1  IDiag  1:
 RMSU=  2.02D-03    CP:  6.39D-01  9.13D-01  5.92D-01
 E= -420.745400294037     Delta-E=       -0.025990802571 Rises=F Damp=F
 DIIS: error= 3.19D-03 at cycle   4 NSaved=   4.
 NSaved= 4 IEnMin= 4 EnMin= -420.745400294037     IErMin= 4 ErrMin= 3.19D-03
 ErrMax= 3.19D-03  0.00D+00 EMaxC= 1.00D-01 BMatC= 1.97D-03 BMatP= 3.57D-02
 IDIUse=3 WtCom= 9.68D-01 WtEn= 3.19D-02
 Coeff-Com:  0.105D-01 0.222D+00 0.306D+00 0.462D+00
 Coeff-En:   0.000D+00 0.000D+00 0.000D+00 0.100D+01
 Coeff:      0.101D-01 0.215D+00 0.296D+00 0.479D+00
 Gap=     0.350 Goal=   None    Shift=    0.000
 RMSDP=9.82D-04 MaxDP=5.28D-02 DE=-2.60D-02 OVMax= 1.26D-02

 Cycle   5  Pass 1  IDiag  1:
 RMSU=  7.25D-04    CP:  6.36D-01  8.99D-01  6.60D-01  8.22D-01
 E= -420.746727210602     Delta-E=       -0.001326916565 Rises=F Damp=F
 DIIS: error= 6.20D-04 at cycle   5 NSaved=   5.
 NSaved= 5 IEnMin= 5 EnMin= -420.746727210602     IErMin= 5 ErrMin= 6.20D-04
 ErrMax= 6.20D-04  0.00D+00 EMaxC= 1.00D-01 BMatC= 5.49D-05 BMatP= 1.97D-03
 IDIUse=3 WtCom= 9.94D-01 WtEn= 6.20D-03
 Coeff-Com:  0.306D-03 0.152D-01 0.304D-01 0.156D+00 0.798D+00
 Coeff-En:   0.000D+00 0.000D+00 0.000D+00 0.000D+00 0.100D+01
 Coeff:      0.304D-03 0.151D-01 0.302D-01 0.155D+00 0.799D+00
 Gap=     0.349 Goal=   None    Shift=    0.000
 RMSDP=2.47D-04 MaxDP=1.55D-02 DE=-1.33D-03 OVMax= 2.60D-03

 Cycle   6  Pass 1  IDiag  1:
 RMSU=  1.23D-04    CP:  6.34D-01  9.03D-01  6.72D-01  8.48D-01  9.88D-01
 E= -420.746769394337     Delta-E=       -0.000042183735 Rises=F Damp=F
 DIIS: error= 2.14D-04 at cycle   6 NSaved=   6.
 NSaved= 6 IEnMin= 6 EnMin= -420.746769394337     IErMin= 6 ErrMin= 2.14D-04
 ErrMax= 2.14D-04  0.00D+00 EMaxC= 1.00D-01 BMatC= 7.43D-06 BMatP= 5.49D-05
 IDIUse=3 WtCom= 9.98D-01 WtEn= 2.14D-03
 Coeff-Com: -0.965D-03-0.166D-01-0.180D-01 0.159D-01 0.346D+00 0.673D+00
 Coeff-En:   0.000D+00 0.000D+00 0.000D+00 0.000D+00 0.000D+00 0.100D+01
 Coeff:     -0.963D-03-0.166D-01-0.180D-01 0.159D-01 0.346D+00 0.674D+00
 Gap=     0.350 Goal=   None    Shift=    0.000
 RMSDP=1.92D-04 MaxDP=1.88D-02 DE=-4.22D-05 OVMax= 8.31D-04

 Cycle   7  Pass 1  IDiag  1:
 RMSU=  5.83D-05    CP:  6.32D-01  9.01D-01  6.81D-01  8.59D-01  1.06D+00
                    CP:  1.13D+00
 E= -420.746776574345     Delta-E=       -0.000007180008 Rises=F Damp=F
 DIIS: error= 6.76D-05 at cycle   7 NSaved=   7.
 NSaved= 7 IEnMin= 7 EnMin= -420.746776574345     IErMin= 7 ErrMin= 6.76D-05
 ErrMax= 6.76D-05  0.00D+00 EMaxC= 1.00D-01 BMatC= 3.10D-07 BMatP= 7.43D-06
 IDIUse=1 WtCom= 1.00D+00 WtEn= 0.00D+00
 Coeff-Com: -0.235D-03-0.546D-02-0.685D-02-0.134D-01-0.190D-04 0.134D+00
 Coeff-Com:  0.892D+00
 Coeff:     -0.235D-03-0.546D-02-0.685D-02-0.134D-01-0.190D-04 0.134D+00
 Coeff:      0.892D+00
 Gap=     0.350 Goal=   None    Shift=    0.000
 RMSDP=4.67D-05 MaxDP=3.44D-03 DE=-7.18D-06 OVMax= 3.12D-04

 Cycle   8  Pass 1  IDiag  1:
 RMSU=  1.40D-05    CP:  6.32D-01  9.01D-01  6.84D-01  8.61D-01  1.10D+00
                    CP:  1.16D+00  1.06D+00
 E= -420.746777143406     Delta-E=       -0.000000569061 Rises=F Damp=F
 DIIS: error= 1.50D-05 at cycle   8 NSaved=   8.
 NSaved= 8 IEnMin= 8 EnMin= -420.746777143406     IErMin= 8 ErrMin= 1.50D-05
 ErrMax= 1.50D-05  0.00D+00 EMaxC= 1.00D-01 BMatC= 4.10D-08 BMatP= 3.10D-07
 IDIUse=1 WtCom= 1.00D+00 WtEn= 0.00D+00
 Coeff-Com:  0.309D-04 0.263D-03 0.143D-03-0.594D-02-0.374D-01-0.373D-01
 Coeff-Com:  0.241D+00 0.839D+00
 Coeff:      0.309D-04 0.263D-03 0.143D-03-0.594D-02-0.374D-01-0.373D-01
 Coeff:      0.241D+00 0.839D+00
 Gap=     0.350 Goal=   None    Shift=    0.000
 RMSDP=1.44D-05 MaxDP=7.64D-04 DE=-5.69D-07 OVMax= 1.17D-04

 Cycle   9  Pass 1  IDiag  1:
 RMSU=  4.98D-06    CP:  6.32D-01  9.01D-01  6.84D-01  8.58D-01  1.11D+00
                    CP:  1.19D+00  1.13D+00  1.18D+00
 E= -420.746777214958     Delta-E=       -0.000000071551 Rises=F Damp=F
 DIIS: error= 1.03D-05 at cycle   9 NSaved=   9.
 NSaved= 9 IEnMin= 9 EnMin= -420.746777214958     IErMin= 9 ErrMin= 1.03D-05
 ErrMax= 1.03D-05  0.00D+00 EMaxC= 1.00D-01 BMatC= 4.61D-09 BMatP= 4.10D-08
 IDIUse=1 WtCom= 1.00D+00 WtEn= 0.00D+00
 Coeff-Com:  0.365D-04 0.698D-03 0.852D-03-0.348D-03-0.101D-01-0.264D-01
 Coeff-Com: -0.277D-01 0.247D+00 0.816D+00
 Coeff:      0.365D-04 0.698D-03 0.852D-03-0.348D-03-0.101D-01-0.264D-01
 Coeff:     -0.277D-01 0.247D+00 0.816D+00
 Gap=     0.350 Goal=   None    Shift=    0.000
 RMSDP=5.26D-06 MaxDP=3.19D-04 DE=-7.16D-08 OVMax= 4.97D-05

 Cycle  10  Pass 1  IDiag  1:
 RMSU=  1.60D-06    CP:  6.32D-01  9.01D-01  6.85D-01  8.56D-01  1.11D+00
                    CP:  1.19D+00  1.15D+00  1.28D+00  1.31D+00
 E= -420.746777223130     Delta-E=       -0.000000008173 Rises=F Damp=F
 DIIS: error= 1.51D-06 at cycle  10 NSaved=  10.
 NSaved=10 IEnMin=10 EnMin= -420.746777223130     IErMin=10 ErrMin= 1.51D-06
 ErrMax= 1.51D-06  0.00D+00 EMaxC= 1.00D-01 BMatC= 5.66D-10 BMatP= 4.61D-09
 IDIUse=1 WtCom= 1.00D+00 WtEn= 0.00D+00
 Coeff-Com:  0.627D-05 0.140D-03 0.197D-03 0.424D-03 0.134D-02-0.374D-02
 Coeff-Com: -0.301D-01-0.269D-01 0.224D+00 0.835D+00
 Coeff:      0.627D-05 0.140D-03 0.197D-03 0.424D-03 0.134D-02-0.374D-02
 Coeff:     -0.301D-01-0.269D-01 0.224D+00 0.835D+00
 Gap=     0.350 Goal=   None    Shift=    0.000
 RMSDP=1.72D-06 MaxDP=9.23D-05 DE=-8.17D-09 OVMax= 1.33D-05

 Cycle  11  Pass 1  IDiag  1:
 RMSU=  3.93D-07    CP:  6.32D-01  9.01D-01  6.85D-01  8.56D-01  1.11D+00
                    CP:  1.19D+00  1.15D+00  1.32D+00  1.44D+00  1.23D+00
 E= -420.746777224037     Delta-E=       -0.000000000906 Rises=F Damp=F
 DIIS: error= 1.01D-06 at cycle  11 NSaved=  11.
 NSaved=11 IEnMin=11 EnMin= -420.746777224037     IErMin=11 ErrMin= 1.01D-06
 ErrMax= 1.01D-06  0.00D+00 EMaxC= 1.00D-01 BMatC= 1.01D-10 BMatP= 5.66D-10
 IDIUse=1 WtCom= 1.00D+00 WtEn= 0.00D+00
 Coeff-Com: -0.149D-05-0.115D-04 0.118D-05 0.247D-03 0.188D-02 0.134D-02
 Coeff-Com: -0.832D-02-0.457D-01-0.136D-01 0.336D+00 0.728D+00
 Coeff:     -0.149D-05-0.115D-04 0.118D-05 0.247D-03 0.188D-02 0.134D-02
 Coeff:     -0.832D-02-0.457D-01-0.136D-01 0.336D+00 0.728D+00
 Gap=     0.350 Goal=   None    Shift=    0.000
 RMSDP=6.57D-07 MaxDP=3.85D-05 DE=-9.06D-10 OVMax= 6.96D-06

 Cycle  12  Pass 1  IDiag  1:
 RMSU=  2.30D-07    CP:  6.32D-01  9.01D-01  6.85D-01  8.56D-01  1.11D+00
                    CP:  1.19D+00  1.16D+00  1.32D+00  1.49D+00  1.35D+00
                    CP:  1.08D+00
 E= -420.746777224176     Delta-E=       -0.000000000140 Rises=F Damp=F
 DIIS: error= 2.38D-07 at cycle  12 NSaved=  12.
 NSaved=12 IEnMin=12 EnMin= -420.746777224176     IErMin=12 ErrMin= 2.38D-07
 ErrMax= 2.38D-07  0.00D+00 EMaxC= 1.00D-01 BMatC= 7.75D-12 BMatP= 1.01D-10
 IDIUse=1 WtCom= 1.00D+00 WtEn= 0.00D+00
 Coeff-Com: -0.962D-06-0.153D-04-0.157D-04 0.395D-04 0.448D-03 0.584D-03
 Coeff-Com:  0.641D-03-0.115D-01-0.222D-01 0.244D-01 0.202D+00 0.806D+00
 Coeff:     -0.962D-06-0.153D-04-0.157D-04 0.395D-04 0.448D-03 0.584D-03
 Coeff:      0.641D-03-0.115D-01-0.222D-01 0.244D-01 0.202D+00 0.806D+00
 Gap=     0.350 Goal=   None    Shift=    0.000
 RMSDP=1.54D-07 MaxDP=1.22D-05 DE=-1.40D-10 OVMax= 2.13D-06

 Cycle  13  Pass 1  IDiag  1:
 RMSU=  6.56D-08    CP:  6.32D-01  9.01D-01  6.85D-01  8.56D-01  1.11D+00
                    CP:  1.19D+00  1.16D+00  1.32D+00  1.50D+00  1.37D+00
                    CP:  1.15D+00  1.02D+00
 E= -420.746777224189     Delta-E=       -0.000000000012 Rises=F Damp=F
 DIIS: error= 1.29D-07 at cycle  13 NSaved=  13.
 NSaved=13 IEnMin=13 EnMin= -420.746777224189     IErMin=13 ErrMin= 1.29D-07
 ErrMax= 1.29D-07  0.00D+00 EMaxC= 1.00D-01 BMatC= 1.34D-12 BMatP= 7.75D-12
 IDIUse=1 WtCom= 1.00D+00 WtEn= 0.00D+00
 Coeff-Com:  0.140D-09-0.395D-05-0.696D-05-0.348D-04-0.210D-03-0.988D-04
 Coeff-Com:  0.186D-02 0.453D-02-0.331D-02-0.544D-01-0.863D-01 0.236D+00
 Coeff-Com:  0.902D+00
 Coeff:      0.140D-09-0.395D-05-0.696D-05-0.348D-04-0.210D-03-0.988D-04
 Coeff:      0.186D-02 0.453D-02-0.331D-02-0.544D-01-0.863D-01 0.236D+00
 Coeff:      0.902D+00
 Gap=     0.350 Goal=   None    Shift=    0.000
 RMSDP=9.02D-08 MaxDP=8.50D-06 DE=-1.22D-11 OVMax= 1.33D-06

 Cycle  14  Pass 1  IDiag  1:
 RMSU=  2.33D-08    CP:  6.32D-01  9.01D-01  6.85D-01  8.56D-01  1.11D+00
                    CP:  1.19D+00  1.16D+00  1.32D+00  1.50D+00  1.37D+00
                    CP:  1.19D+00  1.14D+00  1.25D+00
 E= -420.746777224189     Delta-E=       -0.000000000000 Rises=F Damp=F
 DIIS: error= 5.94D-08 at cycle  14 NSaved=  14.
 NSaved=14 IEnMin=14 EnMin= -420.746777224189     IErMin=14 ErrMin= 5.94D-08
 ErrMax= 5.94D-08  0.00D+00 EMaxC= 1.00D-01 BMatC= 1.11D-13 BMatP= 1.34D-12
 IDIUse=1 WtCom= 1.00D+00 WtEn= 0.00D+00
 Coeff-Com:  0.537D-07 0.894D-06 0.948D-06-0.445D-05-0.576D-04-0.398D-04
 Coeff-Com:  0.345D-04 0.118D-02 0.195D-02-0.587D-02-0.234D-01-0.627D-01
 Coeff-Com:  0.420D-01 0.105D+01
 Coeff:      0.537D-07 0.894D-06 0.948D-06-0.445D-05-0.576D-04-0.398D-04
 Coeff:      0.345D-04 0.118D-02 0.195D-02-0.587D-02-0.234D-01-0.627D-01
 Coeff:      0.420D-01 0.105D+01
 Gap=     0.350 Goal=   None    Shift=    0.000
 RMSDP=3.06D-08 MaxDP=2.55D-06 DE=-2.27D-13 OVMax= 5.19D-07

 Cycle  15  Pass 1  IDiag  1:
 RMSU=  7.59D-09    CP:  6.32D-01  9.01D-01  6.85D-01  8.56D-01  1.11D+00
                    CP:  1.19D+00  1.16D+00  1.32D+00  1.50D+00  1.37D+00
                    CP:  1.20D+00  1.14D+00  1.43D+00  1.29D+00
 E= -420.746777224192     Delta-E=       -0.000000000003 Rises=F Damp=F
 DIIS: error= 3.30D-08 at cycle  15 NSaved=  15.
 NSaved=15 IEnMin=15 EnMin= -420.746777224192     IErMin=15 ErrMin= 3.30D-08
 ErrMax= 3.30D-08  0.00D+00 EMaxC= 1.00D-01 BMatC= 2.99D-14 BMatP= 1.11D-13
 IDIUse=1 WtCom= 1.00D+00 WtEn= 0.00D+00
 Coeff-Com:  0.148D-07 0.915D-06 0.149D-05 0.430D-05 0.129D-04 0.751D-05
 Coeff-Com: -0.284D-03-0.302D-03 0.134D-02 0.680D-02 0.592D-02-0.544D-01
 Coeff-Com: -0.129D+00 0.368D+00 0.802D+00
 Coeff:      0.148D-07 0.915D-06 0.149D-05 0.430D-05 0.129D-04 0.751D-05
 Coeff:     -0.284D-03-0.302D-03 0.134D-02 0.680D-02 0.592D-02-0.544D-01
 Coeff:     -0.129D+00 0.368D+00 0.802D+00
 Gap=     0.350 Goal=   None    Shift=    0.000
 RMSDP=8.45D-09 MaxDP=5.50D-07 DE=-2.84D-12 OVMax= 1.95D-07

 SCF Done:  E(RwB97XD) =  -420.746777224     A.U. after   15 cycles
            NFock= 15  Conv=0.85D-08     -V/T= 2.0015
 KE= 4.201216594204D+02 PE=-1.802631878608D+03 EE= 5.522049964385D+02
 Leave Link  502 at Sun Nov 20 17:27:09 2022, MaxMem= 16106127360 cpu:             409.9 elap:              12.9
 (Enter /opt/ap/G16/B01/g16/l601.exe)
 Copying SCF densities to generalized density rwf, IOpCl= 0 IROHF=0.

 **********************************************************************

            Population analysis using the SCF Density.

 **********************************************************************

 Orbital symmetries:
       Occupied  (A) (A) (A) (A) (A) (A) (A) (A) (A) (A) (A) (A)
                 (A) (A) (A) (A) (A) (A) (A) (A) (A) (A) (A) (A)
                 (A) (A) (A) (A) (A) (A) (A) (A)
       Virtual   (A) (A) (A) (A) (A) (A) (A) (A) (A) (A) (A) (A)
                 (A) (A) (A) (A) (A) (A) (A) (A) (A) (A) (A) (A)
                 (A) (A) (A) (A) (A) (A) (A) (A) (A) (A) (A) (A)
                 (A) (A) (A) (A) (A) (A) (A) (A) (A) (A) (A) (A)
                 (A) (A) (A) (A) (A) (A) (A) (A) (A) (A) (A) (A)
                 (A) (A) (A) (A) (A) (A) (A) (A) (A) (A) (A) (A)
                 (A) (A) (A) (A) (A) (A) (A) (A) (A) (A) (A) (A)
                 (A) (A) (A) (A) (A) (A) (A) (A) (A) (A) (A) (A)
                 (A) (A) (A) (A) (A) (A) (A) (A) (A) (A) (A) (A)
                 (A) (A) (A) (A) (A) (A) (A) (A) (A) (A) (A) (A)
                 (A) (A) (A) (A) (A) (A) (A) (A) (A) (A) (A) (A)
                 (A) (A) (A) (A) (A) (A) (A) (A) (A) (A) (A) (A)
                 (A) (A) (A) (A) (A) (A) (A) (A) (A) (A) (A) (A)
                 (A) (A) (A) (A) (A) (A) (A) (A) (A) (A) (A) (A)
                 (A) (A) (A) (A) (A) (A) (A) (A) (A) (A) (A) (A)
                 (A) (A) (A) (A) (A) (A) (A) (A) (A) (A) (A) (A)
                 (A) (A) (A) (A) (A) (A) (A) (A) (A) (A) (A) (A)
                 (A) (A) (A) (A)
 The electronic state is 1-A.
 Alpha  occ. eigenvalues --  -19.31613 -19.22782 -10.43162 -10.31035 -10.29308
 Alpha  occ. eigenvalues --  -10.29301 -10.29174 -10.28982 -10.28726  -1.25771
 Alpha  occ. eigenvalues --   -1.10610  -0.98067  -0.88911  -0.87004  -0.80541
 Alpha  occ. eigenvalues --   -0.73372  -0.71900  -0.65824  -0.60688  -0.58598
 Alpha  occ. eigenvalues --   -0.56713  -0.56135  -0.54547  -0.53462  -0.48863
 Alpha  occ. eigenvalues --   -0.47363  -0.45566  -0.44705  -0.41046  -0.36125
 Alpha  occ. eigenvalues --   -0.34654  -0.34297
 Alpha virt. eigenvalues --    0.00675   0.03744   0.04317   0.04533   0.05292
 Alpha virt. eigenvalues --    0.06465   0.07816   0.08691   0.10198   0.11435
 Alpha virt. eigenvalues --    0.11904   0.12919   0.13474   0.14385   0.14607
 Alpha virt. eigenvalues --    0.16003   0.16311   0.16938   0.17490   0.17967
 Alpha virt. eigenvalues --    0.18099   0.19587   0.20084   0.20288   0.20404
 Alpha virt. eigenvalues --    0.21170   0.21624   0.21745   0.23273   0.23676
 Alpha virt. eigenvalues --    0.25414   0.26363   0.26806   0.27953   0.28888
 Alpha virt. eigenvalues --    0.29535   0.30211   0.30683   0.30781   0.31875
 Alpha virt. eigenvalues --    0.32000   0.33670   0.34333   0.35285   0.36016
 Alpha virt. eigenvalues --    0.36684   0.37040   0.38186   0.39861   0.40776
 Alpha virt. eigenvalues --    0.41793   0.42235   0.44079   0.44560   0.46506
 Alpha virt. eigenvalues --    0.47952   0.50653   0.54381   0.54660   0.57625
 Alpha virt. eigenvalues --    0.60401   0.60868   0.62117   0.63867   0.64211
 Alpha virt. eigenvalues --    0.64823   0.65143   0.65915   0.68038   0.68697
 Alpha virt. eigenvalues --    0.69100   0.72203   0.73247   0.74151   0.75614
 Alpha virt. eigenvalues --    0.76703   0.81364   0.82763   0.84402   0.86410
 Alpha virt. eigenvalues --    0.88535   0.91423   0.93099   0.93754   0.94723
 Alpha virt. eigenvalues --    0.96847   0.97296   0.97943   1.00229   1.00632
 Alpha virt. eigenvalues --    1.04130   1.07473   1.07768   1.09916   1.11364
 Alpha virt. eigenvalues --    1.14312   1.14897   1.16193   1.17424   1.17737
 Alpha virt. eigenvalues --    1.20988   1.21516   1.24082   1.29040   1.30785
 Alpha virt. eigenvalues --    1.34409   1.37879   1.43813   1.45180   1.55890
 Alpha virt. eigenvalues --    1.57802   1.59277   1.60485   1.61076   1.61855
 Alpha virt. eigenvalues --    1.62642   1.66371   1.67013   1.67449   1.74642
 Alpha virt. eigenvalues --    1.75159   1.78240   1.80604   1.82471   1.87734
 Alpha virt. eigenvalues --    1.88465   1.91329   1.91831   1.96370   2.00373
 Alpha virt. eigenvalues --    2.00583   2.02117   2.03736   2.04787   2.05765
 Alpha virt. eigenvalues --    2.06831   2.12762   2.15290   2.17620   2.19870
 Alpha virt. eigenvalues --    2.23210   2.29151   2.31476   2.42670   2.45929
 Alpha virt. eigenvalues --    2.52083   2.54630   2.54752   2.58277   2.63531
 Alpha virt. eigenvalues --    2.72117   2.72794   2.74493   2.76522   2.81405
 Alpha virt. eigenvalues --    2.81798   2.83289   2.88354   2.89181   2.90450
 Alpha virt. eigenvalues --    2.90688   2.91861   2.95592   2.99532   3.00744
 Alpha virt. eigenvalues --    3.02403   3.06418   3.06920   3.15296   3.18516
 Alpha virt. eigenvalues --    3.18890   3.23563   3.27937   3.31965   3.33694
 Alpha virt. eigenvalues --    3.41931   3.44517   3.48423   3.49738   3.64084
 Alpha virt. eigenvalues --    3.66290   3.69726   3.74591   3.84349   3.87792
 Alpha virt. eigenvalues --    4.08172   4.17304   4.28533   4.30824   4.36870
 Alpha virt. eigenvalues --    4.40922   4.46277   4.95110   5.05570   5.15252
 Alpha virt. eigenvalues --    5.30815   5.49930   5.82905   6.09259  23.84257
 Alpha virt. eigenvalues --   23.94427  24.14165  24.21382  24.28364  24.30446
 Alpha virt. eigenvalues --   24.41851  50.04091  50.16675
          Condensed to atoms (all electrons):
               1          2          3          4          5          6
     1  C   11.213478  -3.581887  -1.510180   2.788656  -0.114317  -2.869661
     2  C   -3.581887  19.414262  -2.108976  -7.629901   0.885296  -0.767043
     3  C   -1.510180  -2.108976  12.222239   0.358147  -0.054531  -0.771580
     4  C    2.788656  -7.629901   0.358147  10.616139  -0.296037  -0.318832
     5  H   -0.114317   0.885296  -0.054531  -0.296037   0.476188  -0.089226
     6  C   -2.869661  -0.767043  -0.771580  -0.318832  -0.089226   9.356101
     7  C    0.792485  -1.040709  -2.722060   1.146739  -0.017753   0.543083
     8  H   -0.009426   0.054692   0.527455  -0.029631   0.001298  -0.093601
     9  C   -1.267683   2.185582   0.840073  -1.304399   0.054875  -0.192069
    10  H    0.063707  -0.237295   0.030453   0.519110  -0.015928   0.013789
    11  O   -0.202899  -0.257030  -0.060504   0.104492  -0.040470   0.452750
    12  O   -0.164424  -0.136351  -0.028684   0.084703  -0.007945   0.556646
    13  H    0.026866  -0.016405  -0.103205   0.013795  -0.000425   0.024336
    14  H    0.004902   0.051715   0.003390  -0.080499   0.001896  -0.015666
    15  H   -0.101334   0.004020   0.007582  -0.034449   0.004464   0.109041
               7          8          9         10         11         12
     1  C    0.792485  -0.009426  -1.267683   0.063707  -0.202899  -0.164424
     2  C   -1.040709   0.054692   2.185582  -0.237295  -0.257030  -0.136351
     3  C   -2.722060   0.527455   0.840073   0.030453  -0.060504  -0.028684
     4  C    1.146739  -0.029631  -1.304399   0.519110   0.104492   0.084703
     5  H   -0.017753   0.001298   0.054875  -0.015928  -0.040470  -0.007945
     6  C    0.543083  -0.093601  -0.192069   0.013789   0.452750   0.556646
     7  C    7.655741  -0.114743  -0.802766   0.006728   0.074954   0.109182
     8  H   -0.114743   0.434155   0.036680  -0.000089  -0.006344  -0.009647
     9  C   -0.802766   0.036680   6.625518  -0.059223  -0.039345  -0.028879
    10  H    0.006728  -0.000089  -0.059223   0.476734   0.003349   0.001034
    11  O    0.074954  -0.006344  -0.039345   0.003349   8.008219  -0.122916
    12  O    0.109182  -0.009647  -0.028879   0.001034  -0.122916   8.095118
    13  H    0.436400  -0.009786  -0.043717  -0.000582   0.001200   0.001999
    14  H   -0.055830   0.001138   0.447043  -0.008969  -0.000592  -0.000479
    15  H    0.012699  -0.000764  -0.003122  -0.000263   0.258757  -0.013608
              13         14         15
     1  C    0.026866   0.004902  -0.101334
     2  C   -0.016405   0.051715   0.004020
     3  C   -0.103205   0.003390   0.007582
     4  C    0.013795  -0.080499  -0.034449
     5  H   -0.000425   0.001896   0.004464
     6  C    0.024336  -0.015666   0.109041
     7  C    0.436400  -0.055830   0.012699
     8  H   -0.009786   0.001138  -0.000764
     9  C   -0.043717   0.447043  -0.003122
    10  H   -0.000582  -0.008969  -0.000263
    11  O    0.001200  -0.000592   0.258757
    12  O    0.001999  -0.000479  -0.013608
    13  H    0.464044  -0.007579   0.000175
    14  H   -0.007579   0.472367  -0.000138
    15  H    0.000175  -0.000138   0.419737
 Mulliken charges:
               1
     1  C    0.931717
     2  C   -0.819969
     3  C   -0.629620
     4  C    0.061966
     5  H    0.212615
     6  C    0.061931
     7  C   -0.024148
     8  H    0.218614
     9  C   -0.448568
    10  H    0.207445
    11  O   -0.173621
    12  O   -0.335748
    13  H    0.212882
    14  H    0.187302
    15  H    0.337201
 Sum of Mulliken charges =  -0.00000
 Mulliken charges with hydrogens summed into heavy atoms:
               1
     1  C    0.931717
     2  C   -0.607354
     3  C   -0.411006
     4  C    0.269412
     6  C    0.061931
     7  C    0.188735
     9  C   -0.261266
    11  O    0.163580
    12  O   -0.335748
 Electronic spatial extent (au):  <R**2>=           1158.1476
 Charge=             -0.0000 electrons
 Dipole moment (field-independent basis, Debye):
    X=             -1.3604    Y=             -2.3000    Z=              0.2865  Tot=              2.6875
 Quadrupole moment (field-independent basis, Debye-Ang):
   XX=            -43.5298   YY=            -49.9362   ZZ=            -54.0946
   XY=             -8.0445   XZ=              1.0022   YZ=             -0.1353
 Traceless Quadrupole moment (field-independent basis, Debye-Ang):
   XX=              5.6571   YY=             -0.7493   ZZ=             -4.9078
   XY=             -8.0445   XZ=              1.0022   YZ=             -0.1353
 Octapole moment (field-independent basis, Debye-Ang**2):
  XXX=             20.6519  YYY=             -4.1653  ZZZ=              0.1262  XYY=             -7.4232
  XXY=            -26.3789  XXZ=              3.7520  XZZ=             11.4400  YZZ=             -0.4444
  YYZ=              0.3841  XYZ=             -0.9488
 Hexadecapole moment (field-independent basis, Debye-Ang**3):
 XXXX=           -875.8755 YYYY=           -358.9020 ZZZZ=            -58.5751 XXXY=            -90.1533
 XXXZ=             11.6713 YYYX=            -16.1653 YYYZ=              0.0018 ZZZX=              0.6081
 ZZZY=             -0.3749 XXYY=           -234.4351 XXZZ=           -194.2800 YYZZ=            -78.9300
 XXYZ=             -3.2943 YYXZ=              1.6073 ZZXY=             -2.0967
 N-N= 4.095584455251D+02 E-N=-1.802631878955D+03  KE= 4.201216594204D+02
 No NMR shielding tensors so no spin-rotation constants.
 Leave Link  601 at Sun Nov 20 17:27:09 2022, MaxMem= 16106127360 cpu:               4.1 elap:               0.1
 (Enter /opt/ap/G16/B01/g16/l9999.exe)
 1\1\GINC-N02\SP\RwB97XD\6-311++G(d,p)\C7H6O2\ROOT\20-Nov-2022\0\\#P wB
 97XD/6-311++G(d,p) scf=maxcycle=512\\_conf020.gjf nmol_natom 1_15\\0,1
 \C\C,1,1.39016191\C,1,1.39194539,2,119.895942\C,2,1.38669027,1,119.880
 75721,3,0.70825972,0\H,2,0.98744251,1,119.71654057,3,-179.90726164,0\C
 ,1,1.48428757,2,119.93615286,4,-179.87772406,0\C,3,1.40101108,1,119.72
 36454,2,-0.26266839,0\H,3,0.9902154,1,119.1886159,2,178.85397616,0\C,4
 ,1.37899003,2,120.45785903,1,-0.48041454,0\H,4,0.9834739,2,120.3044270
 6,1,179.36166981,0\O,6,1.27459751,1,118.00615353,2,-1.25976832,0\O,6,1
 .26362572,1,118.77715367,2,179.20603801,0\H,7,0.98977053,3,119.3786157
 8,1,-178.93545741,0\H,9,0.99498061,4,119.46722635,2,-178.58826714,0\H,
 11,0.89680392,6,118.15823763,1,-170.,0\\Version=ES64L-G16RevB.01\State
 =1-A\HF=-420.7467772\RMSD=8.453e-09\Dipole=0.0392333,-0.1135032,1.0505
 01\Quadrupole=8.1199047,-3.6300241,-4.4898806,0.8511003,-1.2533179,0.2
 530231\PG=C01 [X(C7H6O2)]\\@


 IF AT FIRST YOU DON'T SUCCEED, TRY LOOKING IN 
 THE WASTEBASKET FOR THE DIRECTIONS.
 Job cpu time:       0 days  0 hours  7 minutes 23.1 seconds.
 Elapsed time:       0 days  0 hours  0 minutes 14.0 seconds.
 File lengths (MBytes):  RWF=     35 Int=      0 D2E=      0 Chk=      4 Scr=      1
 Normal termination of Gaussian 16 at Sun Nov 20 17:27:09 2022.
