 Entering Gaussian System, Link 0=g16
 Input=_conf023.gjf
 Output=_conf023.log
 Initial command:
 /opt/ap/G16/B01/g16/l1.exe "/tmp2/scr/Gau-11588.inp" -scrdir="/tmp2/scr/"
 Entering Link 1 = /opt/ap/G16/B01/g16/l1.exe PID=     11589.
  
 Copyright (c) 1988-2017, Gaussian, Inc.  All Rights Reserved.
  
 This is part of the Gaussian(R) 16 program.  It is based on
 the Gaussian(R) 09 system (copyright 2009, Gaussian, Inc.),
 the Gaussian(R) 03 system (copyright 2003, Gaussian, Inc.),
 the Gaussian(R) 98 system (copyright 1998, Gaussian, Inc.),
 the Gaussian(R) 94 system (copyright 1995, Gaussian, Inc.),
 the Gaussian 92(TM) system (copyright 1992, Gaussian, Inc.),
 the Gaussian 90(TM) system (copyright 1990, Gaussian, Inc.),
 the Gaussian 88(TM) system (copyright 1988, Gaussian, Inc.),
 the Gaussian 86(TM) system (copyright 1986, Carnegie Mellon
 University), and the Gaussian 82(TM) system (copyright 1983,
 Carnegie Mellon University). Gaussian is a federally registered
 trademark of Gaussian, Inc.
  
 This software contains proprietary and confidential information,
 including trade secrets, belonging to Gaussian, Inc.
  
 This software is provided under written license and may be
 used, copied, transmitted, or stored only in accord with that
 written license.
  
 The following legend is applicable only to US Government
 contracts under FAR:
  
                    RESTRICTED RIGHTS LEGEND
  
 Use, reproduction and disclosure by the US Government is
 subject to restrictions as set forth in subparagraphs (a)
 and (c) of the Commercial Computer Software - Restricted
 Rights clause in FAR 52.227-19.
  
 Gaussian, Inc.
 340 Quinnipiac St., Bldg. 40, Wallingford CT 06492
  
  
 ---------------------------------------------------------------
 Warning -- This program may not be used in any manner that
 competes with the business of Gaussian, Inc. or will provide
 assistance to any competitor of Gaussian, Inc.  The licensee
 of this program is prohibited from giving any competitor of
 Gaussian, Inc. access to this program.  By using this program,
 the user acknowledges that Gaussian, Inc. is engaged in the
 business of creating and licensing software in the field of
 computational chemistry and represents and warrants to the
 licensee that it is not a competitor of Gaussian, Inc. and that
 it will not use this program in any manner prohibited above.
 ---------------------------------------------------------------
  

 Cite this work as:
 Gaussian 16, Revision B.01,
 M. J. Frisch, G. W. Trucks, H. B. Schlegel, G. E. Scuseria, 
 M. A. Robb, J. R. Cheeseman, G. Scalmani, V. Barone, 
 G. A. Petersson, H. Nakatsuji, X. Li, M. Caricato, A. V. Marenich, 
 J. Bloino, B. G. Janesko, R. Gomperts, B. Mennucci, H. P. Hratchian, 
 J. V. Ortiz, A. F. Izmaylov, J. L. Sonnenberg, D. Williams-Young, 
 F. Ding, F. Lipparini, F. Egidi, J. Goings, B. Peng, A. Petrone, 
 T. Henderson, D. Ranasinghe, V. G. Zakrzewski, J. Gao, N. Rega, 
 G. Zheng, W. Liang, M. Hada, M. Ehara, K. Toyota, R. Fukuda, 
 J. Hasegawa, M. Ishida, T. Nakajima, Y. Honda, O. Kitao, H. Nakai, 
 T. Vreven, K. Throssell, J. A. Montgomery, Jr., J. E. Peralta, 
 F. Ogliaro, M. J. Bearpark, J. J. Heyd, E. N. Brothers, K. N. Kudin, 
 V. N. Staroverov, T. A. Keith, R. Kobayashi, J. Normand, 
 K. Raghavachari, A. P. Rendell, J. C. Burant, S. S. Iyengar, 
 J. Tomasi, M. Cossi, J. M. Millam, M. Klene, C. Adamo, R. Cammi, 
 J. W. Ochterski, R. L. Martin, K. Morokuma, O. Farkas, 
 J. B. Foresman, and D. J. Fox, Gaussian, Inc., Wallingford CT, 2016.
 
 ******************************************
 Gaussian 16:  ES64L-G16RevB.01 20-Dec-2017
                20-Nov-2022 
 ******************************************
 %nprocshared=32
 Will use up to   32 processors via shared memory.
 %mem=120GB
 %chk=_conf023.chk
 ----------------------------------------
 #P wB97XD/6-311++G(d,p) scf=maxcycle=512
 ----------------------------------------
 1/38=1,172=1/1;
 2/12=2,17=6,18=5,40=1/2;
 3/5=4,6=6,7=1111,11=2,25=1,30=1,74=-58/1,2,3;
 4//1;
 5/5=2,7=512,38=5/2;
 6/7=2,8=2,9=2,10=2,28=1/1;
 99/5=1,9=1/99;
 Leave Link    1 at Sun Nov 20 17:26:49 2022, MaxMem= 16106127360 cpu:               1.8 elap:               0.1
 (Enter /opt/ap/G16/B01/g16/l101.exe)
 ----------------------------
 _conf023.gjf nmol_natom 1_15
 ----------------------------
 Symbolic Z-matrix:
 Charge =  0 Multiplicity = 1
 C
 C                    1     1.39016 
 C                    1     1.39195  2     119.89594 
 C                    2     1.38669  1     119.88076  3     0.70826  0
 H                    2     0.98744  1     119.71654  3    -179.90726  0
 C                    1     1.48429  2     119.93615  4    -179.87772  0
 C                    3     1.40101  1     119.72365  2    -0.26267  0
 H                    3     0.99022  1     119.18862  2     178.85398  0
 C                    4     1.37899  2     120.45786  1    -0.48041  0
 H                    4     0.98347  2     120.30443  1     179.36167  0
 O                    6     1.2746   1     118.00615  2    -1.25977  0
 O                    6     1.26363  1     118.77715  2     179.20604  0
 H                    7     0.98977  3     119.37862  1    -178.93546  0
 H                    9     0.99498  4     119.46723  2    -178.58827  0
 H                    11    0.8968   6     118.15824  1    -155.     0
 
 ITRead=  0  0  0  0  0  0  0  0  0  0  0  0  0  0  0
 MicOpt= -1 -1 -1 -1 -1 -1 -1 -1 -1 -1 -1 -1 -1 -1 -1
 NAtoms=     15 NQM=       15 NQMF=       0 NMMI=      0 NMMIF=      0
                NMic=       0 NMicF=      0.
                    Isotopes and Nuclear Properties:
 (Nuclear quadrupole moments (NQMom) in fm**2, nuclear magnetic moments (NMagM)
  in nuclear magnetons)

  Atom         1           2           3           4           5           6           7           8           9          10
 IAtWgt=          12          12          12          12           1          12          12           1          12           1
 AtmWgt=  12.0000000  12.0000000  12.0000000  12.0000000   1.0078250  12.0000000  12.0000000   1.0078250  12.0000000   1.0078250
 NucSpn=           0           0           0           0           1           0           0           1           0           1
 AtZEff=  -0.0000000  -0.0000000  -0.0000000  -0.0000000  -0.0000000  -0.0000000  -0.0000000  -0.0000000  -0.0000000  -0.0000000
 NQMom=    0.0000000   0.0000000   0.0000000   0.0000000   0.0000000   0.0000000   0.0000000   0.0000000   0.0000000   0.0000000
 NMagM=    0.0000000   0.0000000   0.0000000   0.0000000   2.7928460   0.0000000   0.0000000   2.7928460   0.0000000   2.7928460
 AtZNuc=   6.0000000   6.0000000   6.0000000   6.0000000   1.0000000   6.0000000   6.0000000   1.0000000   6.0000000   1.0000000

  Atom        11          12          13          14          15
 IAtWgt=          16          16           1           1           1
 AtmWgt=  15.9949146  15.9949146   1.0078250   1.0078250   1.0078250
 NucSpn=           0           0           1           1           1
 AtZEff=  -0.0000000  -0.0000000  -0.0000000  -0.0000000  -0.0000000
 NQMom=    0.0000000   0.0000000   0.0000000   0.0000000   0.0000000
 NMagM=    0.0000000   0.0000000   2.7928460   2.7928460   2.7928460
 AtZNuc=   8.0000000   8.0000000   1.0000000   1.0000000   1.0000000
 Leave Link  101 at Sun Nov 20 17:26:49 2022, MaxMem= 16106127360 cpu:               5.1 elap:               0.2
 (Enter /opt/ap/G16/B01/g16/l202.exe)
                          Input orientation:                          
 ---------------------------------------------------------------------
 Center     Atomic      Atomic             Coordinates (Angstroms)
 Number     Number       Type             X           Y           Z
 ---------------------------------------------------------------------
      1          6           0        0.000000    0.000000    0.000000
      2          6           0        0.000000    0.000000    1.390162
      3          6           0        1.206722    0.000000   -0.693782
      4          6           0        1.202258    0.014862    2.081006
      5          1           0       -0.857581   -0.001388    1.879646
      6          6           0       -1.286190   -0.013155   -0.740711
      7          6           0        2.415349    0.005578    0.014752
      8          1           0        1.194584   -0.017290   -1.683772
      9          6           0        2.400563    0.019708    1.398617
     10          1           0        1.209438    0.024411    3.064408
     11          8           0       -2.365984   -0.048941   -0.064425
     12          8           0       -1.260842    0.002453   -2.003986
     13          1           0        3.270315    0.021574   -0.483669
     14          1           0        3.254554    0.009066    1.909081
     15          1           0       -3.097870   -0.391330   -0.453487
 ---------------------------------------------------------------------
                    Distance matrix (angstroms):
                    1          2          3          4          5
     1  C    0.000000
     2  C    1.390162   0.000000
     3  C    1.391945   2.408112   0.000000
     4  C    2.403379   1.386690   2.774832   0.000000
     5  H    2.066039   0.987443   3.299073   2.069721   0.000000
     6  C    1.484288   2.488991   2.493388   3.762345   2.655206
     7  C    2.415401   2.779513   1.401011   2.396056   3.766955
     8  H    2.064563   3.297939   0.990215   3.764924   4.112127
     9  C    2.778349   2.400659   2.409104   1.378990   3.293530
    10  H    3.294530   2.065535   3.758270   0.983474   2.382624
    11  O    2.367367   2.777786   3.628045   4.164047   2.461088
    12  O    2.367633   3.620769   2.793834   4.770133   3.904515
    13  H    3.305958   3.769173   2.074374   3.294611   4.756607
    14  H    3.773167   3.295676   3.311886   2.059493   4.112253
    15  H    3.155248   3.626152   4.329018   5.007968   3.257984
                    6          7          8          9         10
     6  C    0.000000
     7  C    3.777892   0.000000
     8  H    2.653982   2.091836   0.000000
     9  C    4.262622   1.384016   3.310118   0.000000
    10  H    4.550659   3.279477   4.748386   2.047842   0.000000
    11  O    1.274598   4.782299   3.911641   4.986499   4.751696
    12  O    1.263626   4.194007   2.476296   4.998389   5.638384
    13  H    4.563881   0.989771   2.398003   2.073517   4.103177
    14  H    5.257398   2.071897   4.141589   0.994981   2.348938
    15  H    1.872885   5.547285   4.480923   5.816529   5.576857
                   11         12         13         14         15
    11  O    0.000000
    12  O    2.232908   0.000000
    13  H    5.652309   4.779447   0.000000
    14  H    5.957225   5.975025   2.392834   0.000000
    15  H    0.896804   2.435936   6.381628   6.789354   0.000000
 Stoichiometry    C7H6O2
 Framework group  C1[X(C7H6O2)]
 Deg. of freedom    39
 Full point group                 C1      NOp   1
 Largest Abelian subgroup         C1      NOp   1
 Largest concise Abelian subgroup C1      NOp   1
                         Standard orientation:                         
 ---------------------------------------------------------------------
 Center     Atomic      Atomic             Coordinates (Angstroms)
 Number     Number       Type             X           Y           Z
 ---------------------------------------------------------------------
      1          6           0        0.221560    0.028709   -0.011465
      2          6           0       -0.442422   -1.192629   -0.014858
      3          6           0       -0.507129    1.214486    0.009948
      4          6           0       -1.828724   -1.225311   -0.011758
      5          1           0        0.077157   -2.032205   -0.028679
      6          6           0        1.705388    0.065139   -0.017523
      7          6           0       -1.907353    1.169211    0.022392
      8          1           0       -0.023390    2.078281    0.029453
      9          6           0       -2.555525   -0.053515    0.004644
     10          1           0       -2.304859   -2.085762   -0.023588
     11          8           0        2.331405   -1.045010   -0.001037
     12          8           0        2.286293    1.187259   -0.029630
     13          1           0       -2.420558    2.015535    0.021586
     14          1           0       -3.549395   -0.094285    0.027995
     15          1           0        3.164684   -1.056101    0.330294
 ---------------------------------------------------------------------
 Rotational constants (GHZ):           3.9631874           1.2397127           0.9448210
 Leave Link  202 at Sun Nov 20 17:26:49 2022, MaxMem= 16106127360 cpu:               0.2 elap:               0.0
 (Enter /opt/ap/G16/B01/g16/l301.exe)
 Standard basis: 6-311++G(d,p) (5D, 7F)
 Ernie: Thresh=  0.10000D-02 Tol=  0.10000D-05 Strict=F.
 There are   249 symmetry adapted cartesian basis functions of A   symmetry.
 There are   240 symmetry adapted basis functions of A   symmetry.
   240 basis functions,   378 primitive gaussians,   249 cartesian basis functions
    32 alpha electrons       32 beta electrons
       nuclear repulsion energy       409.5838109858 Hartrees.
 IExCor= 4639 DFT=T Ex+Corr=wB97XD ExCW=0 ScaHFX=  1.000000
 ScaDFX=  1.000000  1.000000  1.000000  1.000000 ScalE2=  1.000000  1.000000
 IRadAn=      5 IRanWt=     -1 IRanGd=            0 ICorTp=0 IEmpDi=121
 HFx  wShort=  0.000000 wLong=  0.200000 cFull=  0.222036 cShort=  0.000000 cLong=  0.777964
 DFx  wShort=  0.000000 wLong=  0.200000 cFull=  0.000000 cShort=  0.000000 cLong=  1.000000
 NAtoms=   15 NActive=   15 NUniq=   15 SFac= 1.00D+00 NAtFMM=   60 NAOKFM=F Big=F
 Integral buffers will be    131072 words long.
 Raffenetti 2 integral format.
 Two-electron integral symmetry is turned on.
 R6Disp:  Grimme-D2 Dispersion energy=       -0.0063473665 Hartrees.
 Nuclear repulsion after empirical dispersion term =      409.5774636193 Hartrees.
 Leave Link  301 at Sun Nov 20 17:26:50 2022, MaxMem= 16106127360 cpu:               1.2 elap:               0.0
 (Enter /opt/ap/G16/B01/g16/l302.exe)
 NPDir=0 NMtPBC=     1 NCelOv=     1 NCel=       1 NClECP=     1 NCelD=      1
         NCelK=      1 NCelE2=     1 NClLst=     1 CellRange=     0.0.
 One-electron integrals computed using PRISM.
 One-electron integral symmetry used in STVInt
 NBasis=   240 RedAO= T EigKep=  1.22D-06  NBF=   240
 NBsUse=   240 1.00D-06 EigRej= -1.00D+00 NBFU=   240
 Precomputing XC quadrature grid using
 IXCGrd= 4 IRadAn=           5 IRanWt=          -1 IRanGd=           0 AccXCQ= 0.00D+00.
 Generated NRdTot=       0 NPtTot=           0 NUsed=           0 NTot=          32
 NSgBfM=   249   249   249   249   249 MxSgAt=    15 MxSgA2=    15.
 Leave Link  302 at Sun Nov 20 17:26:50 2022, MaxMem= 16106127360 cpu:               5.4 elap:               0.2
 (Enter /opt/ap/G16/B01/g16/l303.exe)
 DipDrv:  MaxL=1.
 Leave Link  303 at Sun Nov 20 17:26:50 2022, MaxMem= 16106127360 cpu:               1.2 elap:               0.0
 (Enter /opt/ap/G16/B01/g16/l401.exe)
 ExpMin= 3.60D-02 ExpMax= 8.59D+03 ExpMxC= 1.30D+03 IAcc=3 IRadAn=         5 AccDes= 0.00D+00
 Harris functional with IExCor= 4639 and IRadAn=       5 diagonalized for initial guess.
 HarFok:  IExCor= 4639 AccDes= 0.00D+00 IRadAn=         5 IDoV= 1 UseB2=F ITyADJ=14
 ICtDFT=  3500011 ScaDFX=  1.000000  1.000000  1.000000  1.000000
 FoFCou: FMM=F IPFlag=           0 FMFlag=      100000 FMFlg1=           0
         NFxFlg=           0 DoJE=T BraDBF=F KetDBF=T FulRan=T
         wScrn=  0.000000 ICntrl=       500 IOpCl=  0 I1Cent=   200000004 NGrid=           0
         NMat0=    1 NMatS0=      1 NMatT0=    0 NMatD0=    1 NMtDS0=    0 NMtDT0=    0
 Petite list used in FoFCou.
 Harris En= -403.252096699307    
 JPrj=0 DoOrth=F DoCkMO=F.
 Leave Link  401 at Sun Nov 20 17:26:50 2022, MaxMem= 16106127360 cpu:              11.8 elap:               0.4
 (Enter /opt/ap/G16/B01/g16/l502.exe)
 Integral symmetry usage will be decided dynamically.
 Closed shell SCF:
 Using DIIS extrapolation, IDIIS=  1040.
 NGot= 16106127360 LenX= 16105992971 LenY= 16105930529
 Requested convergence on RMS density matrix=1.00D-08 within 512 cycles.
 Requested convergence on MAX density matrix=1.00D-06.
 Requested convergence on             energy=1.00D-06.
 No special actions if energy rises.
 Fock matrices will be formed incrementally for  20 cycles.

 Cycle   1  Pass 1  IDiag  1:
 FoFJK:  IHMeth= 1 ICntrl=       0 DoSepK=T KAlg= 0 I1Cent=           0 FoldK=F
 IRaf=         1 NMat=       1 IRICut=       1 DoRegI=T DoRafI=F ISym2E= 0 IDoP0=0 IntGTp=1.
 FoFCou: FMM=F IPFlag=           0 FMFlag=      100000 FMFlg1=           0
         NFxFlg=           0 DoJE=T BraDBF=F KetDBF=F FulRan=T
         wScrn=  0.000000 ICntrl=       500 IOpCl=  0 I1Cent=           0 NGrid=           0
         NMat0=    1 NMatS0=      1 NMatT0=    0 NMatD0=    1 NMtDS0=    0 NMtDT0=    0
 Symmetry not used in FoFCou.
 E= -420.630274461755    
 DIIS: error= 8.02D-02 at cycle   1 NSaved=   1.
 NSaved= 1 IEnMin= 1 EnMin= -420.630274461755     IErMin= 1 ErrMin= 8.02D-02
 ErrMax= 8.02D-02  0.00D+00 EMaxC= 1.00D-01 BMatC= 8.60D-01 BMatP= 8.60D-01
 IDIUse=3 WtCom= 1.98D-01 WtEn= 8.02D-01
 Coeff-Com:  0.100D+01
 Coeff-En:   0.100D+01
 Coeff:      0.100D+01
 Gap=     0.426 Goal=   None    Shift=    0.000
 GapD=    0.426 DampG=2.000 DampE=0.500 DampFc=1.0000 IDamp=-1.
 RMSDP=3.06D-02 MaxDP=2.61D+00              OVMax= 1.02D-01

 Cycle   2  Pass 1  IDiag  1:
 RMSU=  1.44D-02    CP:  6.78D-01
 E= -420.701621796708     Delta-E=       -0.071347334953 Rises=F Damp=F
 DIIS: error= 1.30D-02 at cycle   2 NSaved=   2.
 NSaved= 2 IEnMin= 2 EnMin= -420.701621796708     IErMin= 2 ErrMin= 1.30D-02
 ErrMax= 1.30D-02  0.00D+00 EMaxC= 1.00D-01 BMatC= 5.52D-02 BMatP= 8.60D-01
 IDIUse=3 WtCom= 8.70D-01 WtEn= 1.30D-01
 Coeff-Com:  0.133D+00 0.867D+00
 Coeff-En:   0.859D-01 0.914D+00
 Coeff:      0.127D+00 0.873D+00
 Gap=     0.423 Goal=   None    Shift=    0.000
 RMSDP=7.18D-03 MaxDP=3.49D-01 DE=-7.13D-02 OVMax= 7.27D-02

 Cycle   3  Pass 1  IDiag  1:
 RMSU=  6.36D-03    CP:  6.57D-01  8.05D-01
 E= -420.718035378410     Delta-E=       -0.016413581702 Rises=F Damp=F
 DIIS: error= 1.34D-02 at cycle   3 NSaved=   3.
 NSaved= 3 IEnMin= 3 EnMin= -420.718035378410     IErMin= 2 ErrMin= 1.30D-02
 ErrMax= 1.34D-02  0.00D+00 EMaxC= 1.00D-01 BMatC= 3.37D-02 BMatP= 5.52D-02
 IDIUse=3 WtCom= 8.66D-01 WtEn= 1.34D-01
 Coeff-Com:  0.269D-01 0.444D+00 0.529D+00
 Coeff-En:   0.000D+00 0.377D+00 0.623D+00
 Coeff:      0.233D-01 0.435D+00 0.542D+00
 Gap=     0.360 Goal=   None    Shift=    0.000
 RMSDP=3.62D-03 MaxDP=2.42D-01 DE=-1.64D-02 OVMax= 5.07D-02

 Cycle   4  Pass 1  IDiag  1:
 RMSU=  1.80D-03    CP:  6.39D-01  9.08D-01  6.29D-01
 E= -420.742871959966     Delta-E=       -0.024836581556 Rises=F Damp=F
 DIIS: error= 2.62D-03 at cycle   4 NSaved=   4.
 NSaved= 4 IEnMin= 4 EnMin= -420.742871959966     IErMin= 4 ErrMin= 2.62D-03
 ErrMax= 2.62D-03  0.00D+00 EMaxC= 1.00D-01 BMatC= 1.78D-03 BMatP= 3.37D-02
 IDIUse=3 WtCom= 9.74D-01 WtEn= 2.62D-02
 Coeff-Com:  0.104D-01 0.221D+00 0.305D+00 0.463D+00
 Coeff-En:   0.000D+00 0.000D+00 0.000D+00 0.100D+01
 Coeff:      0.102D-01 0.216D+00 0.297D+00 0.477D+00
 Gap=     0.349 Goal=   None    Shift=    0.000
 RMSDP=1.00D-03 MaxDP=4.43D-02 DE=-2.48D-02 OVMax= 1.18D-02

 Cycle   5  Pass 1  IDiag  1:
 RMSU=  7.20D-04    CP:  6.35D-01  8.92D-01  6.91D-01  7.85D-01
 E= -420.744074874864     Delta-E=       -0.001202914898 Rises=F Damp=F
 DIIS: error= 4.91D-04 at cycle   5 NSaved=   5.
 NSaved= 5 IEnMin= 5 EnMin= -420.744074874864     IErMin= 5 ErrMin= 4.91D-04
 ErrMax= 4.91D-04  0.00D+00 EMaxC= 1.00D-01 BMatC= 5.02D-05 BMatP= 1.78D-03
 IDIUse=3 WtCom= 9.95D-01 WtEn= 4.91D-03
 Coeff-Com:  0.291D-03 0.147D-01 0.297D-01 0.154D+00 0.802D+00
 Coeff-En:   0.000D+00 0.000D+00 0.000D+00 0.000D+00 0.100D+01
 Coeff:      0.290D-03 0.147D-01 0.295D-01 0.153D+00 0.803D+00
 Gap=     0.348 Goal=   None    Shift=    0.000
 RMSDP=2.41D-04 MaxDP=1.40D-02 DE=-1.20D-03 OVMax= 2.48D-03

 Cycle   6  Pass 1  IDiag  1:
 RMSU=  1.25D-04    CP:  6.33D-01  8.96D-01  7.07D-01  8.00D-01  1.01D+00
 E= -420.744114098789     Delta-E=       -0.000039223925 Rises=F Damp=F
 DIIS: error= 1.98D-04 at cycle   6 NSaved=   6.
 NSaved= 6 IEnMin= 6 EnMin= -420.744114098789     IErMin= 6 ErrMin= 1.98D-04
 ErrMax= 1.98D-04  0.00D+00 EMaxC= 1.00D-01 BMatC= 7.28D-06 BMatP= 5.02D-05
 IDIUse=3 WtCom= 9.98D-01 WtEn= 1.98D-03
 Coeff-Com: -0.976D-03-0.169D-01-0.184D-01 0.146D-01 0.349D+00 0.673D+00
 Coeff-En:   0.000D+00 0.000D+00 0.000D+00 0.000D+00 0.000D+00 0.100D+01
 Coeff:     -0.974D-03-0.168D-01-0.184D-01 0.146D-01 0.348D+00 0.674D+00
 Gap=     0.348 Goal=   None    Shift=    0.000
 RMSDP=1.79D-04 MaxDP=1.68D-02 DE=-3.92D-05 OVMax= 8.14D-04

 Cycle   7  Pass 1  IDiag  1:
 RMSU=  4.78D-05    CP:  6.32D-01  8.94D-01  7.17D-01  8.08D-01  1.09D+00
                    CP:  1.09D+00
 E= -420.744121172898     Delta-E=       -0.000007074108 Rises=F Damp=F
 DIIS: error= 6.80D-05 at cycle   7 NSaved=   7.
 NSaved= 7 IEnMin= 7 EnMin= -420.744121172898     IErMin= 7 ErrMin= 6.80D-05
 ErrMax= 6.80D-05  0.00D+00 EMaxC= 1.00D-01 BMatC= 3.09D-07 BMatP= 7.28D-06
 IDIUse=1 WtCom= 1.00D+00 WtEn= 0.00D+00
 Coeff-Com: -0.240D-03-0.556D-02-0.700D-02-0.137D-01 0.143D-02 0.137D+00
 Coeff-Com:  0.888D+00
 Coeff:     -0.240D-03-0.556D-02-0.700D-02-0.137D-01 0.143D-02 0.137D+00
 Coeff:      0.888D+00
 Gap=     0.348 Goal=   None    Shift=    0.000
 RMSDP=4.75D-05 MaxDP=2.88D-03 DE=-7.07D-06 OVMax= 3.21D-04

 Cycle   8  Pass 1  IDiag  1:
 RMSU=  1.41D-05    CP:  6.31D-01  8.94D-01  7.20D-01  8.07D-01  1.13D+00
                    CP:  1.13D+00  1.05D+00
 E= -420.744121746402     Delta-E=       -0.000000573504 Rises=F Damp=F
 DIIS: error= 1.50D-05 at cycle   8 NSaved=   8.
 NSaved= 8 IEnMin= 8 EnMin= -420.744121746402     IErMin= 8 ErrMin= 1.50D-05
 ErrMax= 1.50D-05  0.00D+00 EMaxC= 1.00D-01 BMatC= 4.14D-08 BMatP= 3.09D-07
 IDIUse=1 WtCom= 1.00D+00 WtEn= 0.00D+00
 Coeff-Com:  0.307D-04 0.257D-03 0.129D-03-0.600D-02-0.375D-01-0.373D-01
 Coeff-Com:  0.242D+00 0.838D+00
 Coeff:      0.307D-04 0.257D-03 0.129D-03-0.600D-02-0.375D-01-0.373D-01
 Coeff:      0.242D+00 0.838D+00
 Gap=     0.348 Goal=   None    Shift=    0.000
 RMSDP=1.55D-05 MaxDP=8.22D-04 DE=-5.74D-07 OVMax= 1.22D-04

 Cycle   9  Pass 1  IDiag  1:
 RMSU=  4.92D-06    CP:  6.31D-01  8.94D-01  7.21D-01  8.04D-01  1.14D+00
                    CP:  1.15D+00  1.13D+00  1.23D+00
 E= -420.744121819647     Delta-E=       -0.000000073245 Rises=F Damp=F
 DIIS: error= 1.06D-05 at cycle   9 NSaved=   9.
 NSaved= 9 IEnMin= 9 EnMin= -420.744121819647     IErMin= 9 ErrMin= 1.06D-05
 ErrMax= 1.06D-05  0.00D+00 EMaxC= 1.00D-01 BMatC= 4.94D-09 BMatP= 4.14D-08
 IDIUse=1 WtCom= 1.00D+00 WtEn= 0.00D+00
 Coeff-Com:  0.380D-04 0.727D-03 0.880D-03-0.390D-03-0.106D-01-0.274D-01
 Coeff-Com: -0.260D-01 0.255D+00 0.808D+00
 Coeff:      0.380D-04 0.727D-03 0.880D-03-0.390D-03-0.106D-01-0.274D-01
 Coeff:     -0.260D-01 0.255D+00 0.808D+00
 Gap=     0.348 Goal=   None    Shift=    0.000
 RMSDP=5.16D-06 MaxDP=3.16D-04 DE=-7.32D-08 OVMax= 5.02D-05

 Cycle  10  Pass 1  IDiag  1:
 RMSU=  1.55D-06    CP:  6.31D-01  8.94D-01  7.21D-01  8.02D-01  1.15D+00
                    CP:  1.16D+00  1.16D+00  1.33D+00  1.29D+00
 E= -420.744121828277     Delta-E=       -0.000000008629 Rises=F Damp=F
 DIIS: error= 1.42D-06 at cycle  10 NSaved=  10.
 NSaved=10 IEnMin=10 EnMin= -420.744121828277     IErMin=10 ErrMin= 1.42D-06
 ErrMax= 1.42D-06  0.00D+00 EMaxC= 1.00D-01 BMatC= 6.41D-10 BMatP= 4.94D-09
 IDIUse=1 WtCom= 1.00D+00 WtEn= 0.00D+00
 Coeff-Com:  0.720D-05 0.159D-03 0.216D-03 0.416D-03 0.118D-02-0.437D-02
 Coeff-Com: -0.311D-01-0.216D-01 0.238D+00 0.817D+00
 Coeff:      0.720D-05 0.159D-03 0.216D-03 0.416D-03 0.118D-02-0.437D-02
 Coeff:     -0.311D-01-0.216D-01 0.238D+00 0.817D+00
 Gap=     0.348 Goal=   None    Shift=    0.000
 RMSDP=1.66D-06 MaxDP=1.02D-04 DE=-8.63D-09 OVMax= 1.38D-05

 Cycle  11  Pass 1  IDiag  1:
 RMSU=  3.70D-07    CP:  6.31D-01  8.94D-01  7.21D-01  8.01D-01  1.15D+00
                    CP:  1.16D+00  1.16D+00  1.38D+00  1.42D+00  1.17D+00
 E= -420.744121829301     Delta-E=       -0.000000001024 Rises=F Damp=F
 DIIS: error= 9.36D-07 at cycle  11 NSaved=  11.
 NSaved=11 IEnMin=11 EnMin= -420.744121829301     IErMin=11 ErrMin= 9.36D-07
 ErrMax= 9.36D-07  0.00D+00 EMaxC= 1.00D-01 BMatC= 1.11D-10 BMatP= 6.41D-10
 IDIUse=1 WtCom= 1.00D+00 WtEn= 0.00D+00
 Coeff-Com: -0.166D-05-0.142D-04-0.257D-05 0.249D-03 0.197D-02 0.144D-02
 Coeff-Com: -0.858D-02-0.468D-01-0.157D-01 0.323D+00 0.745D+00
 Coeff:     -0.166D-05-0.142D-04-0.257D-05 0.249D-03 0.197D-02 0.144D-02
 Coeff:     -0.858D-02-0.468D-01-0.157D-01 0.323D+00 0.745D+00
 Gap=     0.348 Goal=   None    Shift=    0.000
 RMSDP=6.82D-07 MaxDP=4.33D-05 DE=-1.02D-09 OVMax= 6.71D-06

 Cycle  12  Pass 1  IDiag  1:
 RMSU=  2.50D-07    CP:  6.31D-01  8.94D-01  7.21D-01  8.01D-01  1.15D+00
                    CP:  1.16D+00  1.16D+00  1.38D+00  1.47D+00  1.30D+00
                    CP:  1.07D+00
 E= -420.744121829468     Delta-E=       -0.000000000167 Rises=F Damp=F
 DIIS: error= 1.80D-07 at cycle  12 NSaved=  12.
 NSaved=12 IEnMin=12 EnMin= -420.744121829468     IErMin=12 ErrMin= 1.80D-07
 ErrMax= 1.80D-07  0.00D+00 EMaxC= 1.00D-01 BMatC= 8.74D-12 BMatP= 1.11D-10
 IDIUse=1 WtCom= 1.00D+00 WtEn= 0.00D+00
 Coeff-Com: -0.106D-05-0.173D-04-0.183D-04 0.359D-04 0.451D-03 0.646D-03
 Coeff-Com:  0.871D-03-0.113D-01-0.246D-01 0.151D-01 0.197D+00 0.822D+00
 Coeff:     -0.106D-05-0.173D-04-0.183D-04 0.359D-04 0.451D-03 0.646D-03
 Coeff:      0.871D-03-0.113D-01-0.246D-01 0.151D-01 0.197D+00 0.822D+00
 Gap=     0.348 Goal=   None    Shift=    0.000
 RMSDP=1.43D-07 MaxDP=1.06D-05 DE=-1.67D-10 OVMax= 2.57D-06

 Cycle  13  Pass 1  IDiag  1:
 RMSU=  6.56D-08    CP:  6.31D-01  8.94D-01  7.21D-01  8.01D-01  1.15D+00
                    CP:  1.16D+00  1.16D+00  1.38D+00  1.48D+00  1.32D+00
                    CP:  1.15D+00  1.02D+00
 E= -420.744121829486     Delta-E=       -0.000000000018 Rises=F Damp=F
 DIIS: error= 1.12D-07 at cycle  13 NSaved=  13.
 NSaved=13 IEnMin=13 EnMin= -420.744121829486     IErMin=13 ErrMin= 1.12D-07
 ErrMax= 1.12D-07  0.00D+00 EMaxC= 1.00D-01 BMatC= 1.52D-12 BMatP= 8.74D-12
 IDIUse=1 WtCom= 1.00D+00 WtEn= 0.00D+00
 Coeff-Com:  0.259D-07-0.395D-05-0.714D-05-0.394D-04-0.252D-03-0.119D-03
 Coeff-Com:  0.201D-02 0.547D-02-0.325D-02-0.575D-01-0.993D-01 0.218D+00
 Coeff-Com:  0.935D+00
 Coeff:      0.259D-07-0.395D-05-0.714D-05-0.394D-04-0.252D-03-0.119D-03
 Coeff:      0.201D-02 0.547D-02-0.325D-02-0.575D-01-0.993D-01 0.218D+00
 Coeff:      0.935D+00
 Gap=     0.348 Goal=   None    Shift=    0.000
 RMSDP=8.52D-08 MaxDP=7.71D-06 DE=-1.84D-11 OVMax= 1.79D-06

 Cycle  14  Pass 1  IDiag  1:
 RMSU=  2.49D-08    CP:  6.31D-01  8.94D-01  7.21D-01  8.01D-01  1.15D+00
                    CP:  1.16D+00  1.16D+00  1.38D+00  1.48D+00  1.33D+00
                    CP:  1.19D+00  1.14D+00  1.31D+00
 E= -420.744121829494     Delta-E=       -0.000000000008 Rises=F Damp=F
 DIIS: error= 4.82D-08 at cycle  14 NSaved=  14.
 NSaved=14 IEnMin=14 EnMin= -420.744121829494     IErMin=14 ErrMin= 4.82D-08
 ErrMax= 4.82D-08  0.00D+00 EMaxC= 1.00D-01 BMatC= 1.43D-13 BMatP= 1.52D-12
 IDIUse=1 WtCom= 1.00D+00 WtEn= 0.00D+00
 Coeff-Com:  0.758D-07 0.141D-05 0.155D-05-0.426D-05-0.640D-04-0.478D-04
 Coeff-Com: -0.163D-04 0.133D-02 0.234D-02-0.473D-02-0.240D-01-0.769D-01
 Coeff-Com:  0.309D-01 0.107D+01
 Coeff:      0.758D-07 0.141D-05 0.155D-05-0.426D-05-0.640D-04-0.478D-04
 Coeff:     -0.163D-04 0.133D-02 0.234D-02-0.473D-02-0.240D-01-0.769D-01
 Coeff:      0.309D-01 0.107D+01
 Gap=     0.348 Goal=   None    Shift=    0.000
 RMSDP=2.96D-08 MaxDP=2.40D-06 DE=-7.50D-12 OVMax= 7.70D-07

 Cycle  15  Pass 1  IDiag  1:
 RMSU=  7.87D-09    CP:  6.31D-01  8.94D-01  7.21D-01  8.01D-01  1.15D+00
                    CP:  1.16D+00  1.16D+00  1.37D+00  1.48D+00  1.32D+00
                    CP:  1.19D+00  1.14D+00  1.50D+00  1.30D+00
 E= -420.744121829494     Delta-E=        0.000000000000 Rises=F Damp=F
 DIIS: error= 2.72D-08 at cycle  15 NSaved=  15.
 NSaved=15 IEnMin=14 EnMin= -420.744121829494     IErMin=15 ErrMin= 2.72D-08
 ErrMax= 2.72D-08  0.00D+00 EMaxC= 1.00D-01 BMatC= 3.82D-14 BMatP= 1.43D-13
 IDIUse=1 WtCom= 1.00D+00 WtEn= 0.00D+00
 Coeff-Com:  0.188D-07 0.109D-05 0.171D-05 0.496D-05 0.165D-04 0.908D-05
 Coeff-Com: -0.325D-03-0.366D-03 0.140D-02 0.757D-02 0.765D-02-0.569D-01
 Coeff-Com: -0.138D+00 0.379D+00 0.800D+00
 Coeff:      0.188D-07 0.109D-05 0.171D-05 0.496D-05 0.165D-04 0.908D-05
 Coeff:     -0.325D-03-0.366D-03 0.140D-02 0.757D-02 0.765D-02-0.569D-01
 Coeff:     -0.138D+00 0.379D+00 0.800D+00
 Gap=     0.348 Goal=   None    Shift=    0.000
 RMSDP=7.45D-09 MaxDP=3.33D-07 DE= 3.41D-13 OVMax= 2.48D-07

 SCF Done:  E(RwB97XD) =  -420.744121829     A.U. after   15 cycles
            NFock= 15  Conv=0.74D-08     -V/T= 2.0015
 KE= 4.201261386479D+02 PE=-1.802675938080D+03 EE= 5.522282139834D+02
 Leave Link  502 at Sun Nov 20 17:27:03 2022, MaxMem= 16106127360 cpu:             406.8 elap:              12.8
 (Enter /opt/ap/G16/B01/g16/l601.exe)
 Copying SCF densities to generalized density rwf, IOpCl= 0 IROHF=0.

 **********************************************************************

            Population analysis using the SCF Density.

 **********************************************************************

 Orbital symmetries:
       Occupied  (A) (A) (A) (A) (A) (A) (A) (A) (A) (A) (A) (A)
                 (A) (A) (A) (A) (A) (A) (A) (A) (A) (A) (A) (A)
                 (A) (A) (A) (A) (A) (A) (A) (A)
       Virtual   (A) (A) (A) (A) (A) (A) (A) (A) (A) (A) (A) (A)
                 (A) (A) (A) (A) (A) (A) (A) (A) (A) (A) (A) (A)
                 (A) (A) (A) (A) (A) (A) (A) (A) (A) (A) (A) (A)
                 (A) (A) (A) (A) (A) (A) (A) (A) (A) (A) (A) (A)
                 (A) (A) (A) (A) (A) (A) (A) (A) (A) (A) (A) (A)
                 (A) (A) (A) (A) (A) (A) (A) (A) (A) (A) (A) (A)
                 (A) (A) (A) (A) (A) (A) (A) (A) (A) (A) (A) (A)
                 (A) (A) (A) (A) (A) (A) (A) (A) (A) (A) (A) (A)
                 (A) (A) (A) (A) (A) (A) (A) (A) (A) (A) (A) (A)
                 (A) (A) (A) (A) (A) (A) (A) (A) (A) (A) (A) (A)
                 (A) (A) (A) (A) (A) (A) (A) (A) (A) (A) (A) (A)
                 (A) (A) (A) (A) (A) (A) (A) (A) (A) (A) (A) (A)
                 (A) (A) (A) (A) (A) (A) (A) (A) (A) (A) (A) (A)
                 (A) (A) (A) (A) (A) (A) (A) (A) (A) (A) (A) (A)
                 (A) (A) (A) (A) (A) (A) (A) (A) (A) (A) (A) (A)
                 (A) (A) (A) (A) (A) (A) (A) (A) (A) (A) (A) (A)
                 (A) (A) (A) (A) (A) (A) (A) (A) (A) (A) (A) (A)
                 (A) (A) (A) (A)
 The electronic state is 1-A.
 Alpha  occ. eigenvalues --  -19.31390 -19.22869 -10.43162 -10.31013 -10.29321
 Alpha  occ. eigenvalues --  -10.29310 -10.29197 -10.28999 -10.28742  -1.25656
 Alpha  occ. eigenvalues --   -1.10644  -0.98075  -0.88875  -0.87019  -0.80441
 Alpha  occ. eigenvalues --   -0.73388  -0.71959  -0.65884  -0.60783  -0.58642
 Alpha  occ. eigenvalues --   -0.56677  -0.56107  -0.54405  -0.53478  -0.48687
 Alpha  occ. eigenvalues --   -0.47322  -0.45534  -0.44659  -0.41142  -0.36129
 Alpha  occ. eigenvalues --   -0.34667  -0.34315
 Alpha virt. eigenvalues --    0.00532   0.03717   0.04293   0.04525   0.05283
 Alpha virt. eigenvalues --    0.06471   0.07812   0.08706   0.10185   0.11217
 Alpha virt. eigenvalues --    0.11892   0.12915   0.13390   0.14352   0.14622
 Alpha virt. eigenvalues --    0.16007   0.16342   0.16937   0.17386   0.17923
 Alpha virt. eigenvalues --    0.18122   0.19549   0.20132   0.20183   0.20421
 Alpha virt. eigenvalues --    0.21169   0.21613   0.21692   0.23423   0.23762
 Alpha virt. eigenvalues --    0.25490   0.26324   0.26866   0.27935   0.28388
 Alpha virt. eigenvalues --    0.29594   0.29967   0.30656   0.30880   0.32055
 Alpha virt. eigenvalues --    0.32148   0.33288   0.34396   0.35323   0.36022
 Alpha virt. eigenvalues --    0.36484   0.37083   0.38127   0.39889   0.40035
 Alpha virt. eigenvalues --    0.41653   0.42134   0.43126   0.44135   0.46041
 Alpha virt. eigenvalues --    0.46627   0.50361   0.53389   0.54590   0.57619
 Alpha virt. eigenvalues --    0.59872   0.60506   0.61955   0.63754   0.64218
 Alpha virt. eigenvalues --    0.64808   0.65097   0.65710   0.66872   0.68967
 Alpha virt. eigenvalues --    0.69685   0.72167   0.73669   0.74181   0.75242
 Alpha virt. eigenvalues --    0.76740   0.81139   0.82547   0.83763   0.86337
 Alpha virt. eigenvalues --    0.88524   0.90550   0.93000   0.93734   0.94671
 Alpha virt. eigenvalues --    0.96487   0.97073   0.97609   0.99857   1.00555
 Alpha virt. eigenvalues --    1.04126   1.07339   1.07854   1.09695   1.11419
 Alpha virt. eigenvalues --    1.14198   1.14959   1.16182   1.16837   1.17889
 Alpha virt. eigenvalues --    1.21305   1.21479   1.24184   1.28622   1.29282
 Alpha virt. eigenvalues --    1.34993   1.39457   1.43842   1.45488   1.55343
 Alpha virt. eigenvalues --    1.58415   1.59139   1.60523   1.61032   1.62082
 Alpha virt. eigenvalues --    1.62550   1.66111   1.66977   1.67591   1.74772
 Alpha virt. eigenvalues --    1.75149   1.77472   1.79871   1.82705   1.87629
 Alpha virt. eigenvalues --    1.88324   1.91135   1.91889   1.95586   2.00362
 Alpha virt. eigenvalues --    2.00450   2.02132   2.03617   2.04505   2.05484
 Alpha virt. eigenvalues --    2.06884   2.11545   2.15306   2.17848   2.19531
 Alpha virt. eigenvalues --    2.23187   2.29096   2.30074   2.42740   2.45953
 Alpha virt. eigenvalues --    2.51944   2.54157   2.54555   2.58056   2.60204
 Alpha virt. eigenvalues --    2.71728   2.72914   2.74939   2.76985   2.81189
 Alpha virt. eigenvalues --    2.81763   2.83130   2.88256   2.89360   2.90486
 Alpha virt. eigenvalues --    2.90721   2.91828   2.95993   2.99609   3.00494
 Alpha virt. eigenvalues --    3.03987   3.06179   3.06397   3.15374   3.18565
 Alpha virt. eigenvalues --    3.18877   3.23397   3.27916   3.31756   3.36322
 Alpha virt. eigenvalues --    3.39962   3.45308   3.48461   3.50012   3.63906
 Alpha virt. eigenvalues --    3.66250   3.69260   3.74337   3.84337   3.87695
 Alpha virt. eigenvalues --    4.06590   4.16978   4.28447   4.30777   4.36765
 Alpha virt. eigenvalues --    4.40619   4.45565   4.94966   5.07900   5.15412
 Alpha virt. eigenvalues --    5.30567   5.48654   5.82881   6.08594  23.84118
 Alpha virt. eigenvalues --   23.94447  24.14116  24.21358  24.28337  24.30417
 Alpha virt. eigenvalues --   24.41833  50.04219  50.16597
          Condensed to atoms (all electrons):
               1          2          3          4          5          6
     1  C   10.725630  -3.234250  -1.555563   2.402593  -0.075844  -2.456426
     2  C   -3.234250  17.957480  -2.125571  -6.455989   0.817011  -0.830577
     3  C   -1.555563  -2.125571  12.572997   0.334488  -0.053598  -0.773372
     4  C    2.402593  -6.455989   0.334488   9.623686  -0.243920  -0.099247
     5  H   -0.075844   0.817011  -0.053598  -0.243920   0.482268  -0.119548
     6  C   -2.456426  -0.830577  -0.773372  -0.099247  -0.119548   8.923794
     7  C    0.828359  -0.684416  -3.033829   0.896482  -0.005534   0.456191
     8  H   -0.023160   0.040420   0.539312  -0.023022   0.000859  -0.080729
     9  C   -1.212625   1.835256   0.916156  -1.060115   0.048017  -0.182694
    10  H    0.053527  -0.200026   0.029512   0.490121  -0.014888   0.016931
    11  O   -0.196341  -0.243636  -0.066029   0.089263  -0.042897   0.461096
    12  O   -0.212056  -0.124512  -0.032778   0.069935  -0.007349   0.608440
    13  H    0.031408  -0.003646  -0.110829   0.005864  -0.000103   0.019080
    14  H    0.006097   0.037198   0.002041  -0.069768   0.001748  -0.014530
    15  H   -0.071533   0.007315   0.002618  -0.026363   0.002670   0.075525
               7          8          9         10         11         12
     1  C    0.828359  -0.023160  -1.212625   0.053527  -0.196341  -0.212056
     2  C   -0.684416   0.040420   1.835256  -0.200026  -0.243636  -0.124512
     3  C   -3.033829   0.539312   0.916156   0.029512  -0.066029  -0.032778
     4  C    0.896482  -0.023022  -1.060115   0.490121   0.089263   0.069935
     5  H   -0.005534   0.000859   0.048017  -0.014888  -0.042897  -0.007349
     6  C    0.456191  -0.080729  -0.182694   0.016931   0.461096   0.608440
     7  C    7.792524  -0.113787  -0.701675  -0.001535   0.073865   0.113868
     8  H   -0.113787   0.433552   0.032144   0.000105  -0.006111  -0.008653
     9  C   -0.701675   0.032144   6.498888  -0.051188  -0.039705  -0.024827
    10  H   -0.001535   0.000105  -0.051188   0.475038   0.003352   0.000858
    11  O    0.073865  -0.006111  -0.039705   0.003352   7.997796  -0.129937
    12  O    0.113868  -0.008653  -0.024827   0.000858  -0.129937   8.080481
    13  H    0.435245  -0.009551  -0.039735  -0.000881   0.001192   0.001759
    14  H   -0.045947   0.000878   0.439165  -0.008290  -0.000582  -0.000431
    15  H    0.011458  -0.000549  -0.002905  -0.000183   0.271803  -0.004998
              13         14         15
     1  C    0.031408   0.006097  -0.071533
     2  C   -0.003646   0.037198   0.007315
     3  C   -0.110829   0.002041   0.002618
     4  C    0.005864  -0.069768  -0.026363
     5  H   -0.000103   0.001748   0.002670
     6  C    0.019080  -0.014530   0.075525
     7  C    0.435245  -0.045947   0.011458
     8  H   -0.009551   0.000878  -0.000549
     9  C   -0.039735   0.439165  -0.002905
    10  H   -0.000881  -0.008290  -0.000183
    11  O    0.001192  -0.000582   0.271803
    12  O    0.001759  -0.000431  -0.004998
    13  H    0.464016  -0.006844   0.000142
    14  H   -0.006844   0.472000  -0.000110
    15  H    0.000142  -0.000110   0.408579
 Mulliken charges:
               1
     1  C    0.990183
     2  C   -0.792058
     3  C   -0.645558
     4  C    0.065991
     5  H    0.211109
     6  C   -0.003936
     7  C   -0.021269
     8  H    0.218291
     9  C   -0.454158
    10  H    0.207546
    11  O   -0.173131
    12  O   -0.329801
    13  H    0.212883
    14  H    0.187376
    15  H    0.326531
 Sum of Mulliken charges =  -0.00000
 Mulliken charges with hydrogens summed into heavy atoms:
               1
     1  C    0.990183
     2  C   -0.580949
     3  C   -0.427267
     4  C    0.273537
     6  C   -0.003936
     7  C    0.191614
     9  C   -0.266782
    11  O    0.153400
    12  O   -0.329801
 Electronic spatial extent (au):  <R**2>=           1157.7248
 Charge=             -0.0000 electrons
 Dipole moment (field-independent basis, Debye):
    X=             -1.4646    Y=             -2.3085    Z=              0.6394  Tot=              2.8077
 Quadrupole moment (field-independent basis, Debye-Ang):
   XX=            -44.2418   YY=            -49.8214   ZZ=            -53.8496
   XY=             -7.9971   XZ=              2.2533   YZ=             -0.5621
 Traceless Quadrupole moment (field-independent basis, Debye-Ang):
   XX=              5.0625   YY=             -0.5171   ZZ=             -4.5454
   XY=             -7.9971   XZ=              2.2533   YZ=             -0.5621
 Octapole moment (field-independent basis, Debye-Ang**2):
  XXX=             16.9060  YYY=             -4.2756  ZZZ=              0.3127  XYY=             -7.1460
  XXY=            -25.9039  XXZ=              8.0305  XZZ=             12.1367  YZZ=             -0.6816
  YYZ=              0.9058  XYZ=             -2.4921
 Hexadecapole moment (field-independent basis, Debye-Ang**3):
 XXXX=           -891.2339 YYYY=           -358.8048 ZZZZ=            -58.6555 XXXY=            -87.3443
 XXXZ=             25.6320 YYYX=            -16.4901 YYYZ=             -0.6845 ZZZX=              1.5388
 ZZZY=             -0.7750 XXYY=           -233.7643 XXZZ=           -191.8968 YYZZ=            -78.6680
 XXYZ=             -8.1841 YYXZ=              3.4316 ZZXY=             -2.7985
 N-N= 4.095774636193D+02 E-N=-1.802675938408D+03  KE= 4.201261386479D+02
 No NMR shielding tensors so no spin-rotation constants.
 Leave Link  601 at Sun Nov 20 17:27:03 2022, MaxMem= 16106127360 cpu:               3.2 elap:               0.1
 (Enter /opt/ap/G16/B01/g16/l9999.exe)
 1\1\GINC-N07\SP\RwB97XD\6-311++G(d,p)\C7H6O2\ROOT\20-Nov-2022\0\\#P wB
 97XD/6-311++G(d,p) scf=maxcycle=512\\_conf023.gjf nmol_natom 1_15\\0,1
 \C\C,1,1.39016191\C,1,1.39194539,2,119.895942\C,2,1.38669027,1,119.880
 75721,3,0.70825972,0\H,2,0.98744251,1,119.71654057,3,-179.90726164,0\C
 ,1,1.48428757,2,119.93615286,4,-179.87772406,0\C,3,1.40101108,1,119.72
 36454,2,-0.26266839,0\H,3,0.9902154,1,119.1886159,2,178.85397616,0\C,4
 ,1.37899003,2,120.45785903,1,-0.48041454,0\H,4,0.9834739,2,120.3044270
 6,1,179.36166981,0\O,6,1.27459751,1,118.00615353,2,-1.25976832,0\O,6,1
 .26362572,1,118.77715367,2,179.20603801,0\H,7,0.98977053,3,119.3786157
 8,1,-178.93545741,0\H,9,0.99498061,4,119.46722635,2,-178.58826714,0\H,
 11,0.89680392,6,118.15823763,1,-155.,0\\Version=ES64L-G16RevB.01\State
 =1-A\HF=-420.7441218\RMSD=7.447e-09\Dipole=0.0766081,-0.2529631,1.0725
 347\Quadrupole=7.7496436,-3.3237503,-4.4258933,1.8570101,-1.494967,0.4
 111749\PG=C01 [X(C7H6O2)]\\@


 VIRTUE IS LEARNED AT YOUR MOTHER'S KNEE,
 VICES ARE PICKED UP AT SOME OTHER JOINT.
 Job cpu time:       0 days  0 hours  7 minutes 18.9 seconds.
 Elapsed time:       0 days  0 hours  0 minutes 13.8 seconds.
 File lengths (MBytes):  RWF=     35 Int=      0 D2E=      0 Chk=      4 Scr=      1
 Normal termination of Gaussian 16 at Sun Nov 20 17:27:03 2022.
