 Entering Gaussian System, Link 0=g16
 Input=_conf004.gjf
 Output=_conf004.log
 Initial command:
 /opt/ap/G16/B01/g16/l1.exe "/tmp2/scr/Gau-5507.inp" -scrdir="/tmp2/scr/"
 Entering Link 1 = /opt/ap/G16/B01/g16/l1.exe PID=      5508.
  
 Copyright (c) 1988-2017, Gaussian, Inc.  All Rights Reserved.
  
 This is part of the Gaussian(R) 16 program.  It is based on
 the Gaussian(R) 09 system (copyright 2009, Gaussian, Inc.),
 the Gaussian(R) 03 system (copyright 2003, Gaussian, Inc.),
 the Gaussian(R) 98 system (copyright 1998, Gaussian, Inc.),
 the Gaussian(R) 94 system (copyright 1995, Gaussian, Inc.),
 the Gaussian 92(TM) system (copyright 1992, Gaussian, Inc.),
 the Gaussian 90(TM) system (copyright 1990, Gaussian, Inc.),
 the Gaussian 88(TM) system (copyright 1988, Gaussian, Inc.),
 the Gaussian 86(TM) system (copyright 1986, Carnegie Mellon
 University), and the Gaussian 82(TM) system (copyright 1983,
 Carnegie Mellon University). Gaussian is a federally registered
 trademark of Gaussian, Inc.
  
 This software contains proprietary and confidential information,
 including trade secrets, belonging to Gaussian, Inc.
  
 This software is provided under written license and may be
 used, copied, transmitted, or stored only in accord with that
 written license.
  
 The following legend is applicable only to US Government
 contracts under FAR:
  
                    RESTRICTED RIGHTS LEGEND
  
 Use, reproduction and disclosure by the US Government is
 subject to restrictions as set forth in subparagraphs (a)
 and (c) of the Commercial Computer Software - Restricted
 Rights clause in FAR 52.227-19.
  
 Gaussian, Inc.
 340 Quinnipiac St., Bldg. 40, Wallingford CT 06492
  
  
 ---------------------------------------------------------------
 Warning -- This program may not be used in any manner that
 competes with the business of Gaussian, Inc. or will provide
 assistance to any competitor of Gaussian, Inc.  The licensee
 of this program is prohibited from giving any competitor of
 Gaussian, Inc. access to this program.  By using this program,
 the user acknowledges that Gaussian, Inc. is engaged in the
 business of creating and licensing software in the field of
 computational chemistry and represents and warrants to the
 licensee that it is not a competitor of Gaussian, Inc. and that
 it will not use this program in any manner prohibited above.
 ---------------------------------------------------------------
  

 Cite this work as:
 Gaussian 16, Revision B.01,
 M. J. Frisch, G. W. Trucks, H. B. Schlegel, G. E. Scuseria, 
 M. A. Robb, J. R. Cheeseman, G. Scalmani, V. Barone, 
 G. A. Petersson, H. Nakatsuji, X. Li, M. Caricato, A. V. Marenich, 
 J. Bloino, B. G. Janesko, R. Gomperts, B. Mennucci, H. P. Hratchian, 
 J. V. Ortiz, A. F. Izmaylov, J. L. Sonnenberg, D. Williams-Young, 
 F. Ding, F. Lipparini, F. Egidi, J. Goings, B. Peng, A. Petrone, 
 T. Henderson, D. Ranasinghe, V. G. Zakrzewski, J. Gao, N. Rega, 
 G. Zheng, W. Liang, M. Hada, M. Ehara, K. Toyota, R. Fukuda, 
 J. Hasegawa, M. Ishida, T. Nakajima, Y. Honda, O. Kitao, H. Nakai, 
 T. Vreven, K. Throssell, J. A. Montgomery, Jr., J. E. Peralta, 
 F. Ogliaro, M. J. Bearpark, J. J. Heyd, E. N. Brothers, K. N. Kudin, 
 V. N. Staroverov, T. A. Keith, R. Kobayashi, J. Normand, 
 K. Raghavachari, A. P. Rendell, J. C. Burant, S. S. Iyengar, 
 J. Tomasi, M. Cossi, J. M. Millam, M. Klene, C. Adamo, R. Cammi, 
 J. W. Ochterski, R. L. Martin, K. Morokuma, O. Farkas, 
 J. B. Foresman, and D. J. Fox, Gaussian, Inc., Wallingford CT, 2016.
 
 ******************************************
 Gaussian 16:  ES64L-G16RevB.01 20-Dec-2017
                20-Nov-2022 
 ******************************************
 %nprocshared=32
 Will use up to   32 processors via shared memory.
 %mem=120GB
 %chk=_conf004.chk
 ----------------------------------------
 #P wB97XD/6-311++G(d,p) scf=maxcycle=512
 ----------------------------------------
 1/38=1,172=1/1;
 2/12=2,17=6,18=5,40=1/2;
 3/5=4,6=6,7=1111,11=2,25=1,30=1,74=-58/1,2,3;
 4//1;
 5/5=2,7=512,38=5/2;
 6/7=2,8=2,9=2,10=2,28=1/1;
 99/5=1,9=1/99;
 Leave Link    1 at Sun Nov 20 17:25:52 2022, MaxMem= 16106127360 cpu:               2.2 elap:               0.1
 (Enter /opt/ap/G16/B01/g16/l101.exe)
 ----------------------------
 _conf004.gjf nmol_natom 1_15
 ----------------------------
 Symbolic Z-matrix:
 Charge =  0 Multiplicity = 1
 C
 C                    1     1.39016 
 C                    1     1.39195  2     119.89594 
 C                    2     1.38669  1     119.88076  3     0.70826  0
 H                    2     0.98744  1     119.71654  3    -179.90726  0
 C                    1     1.48429  2     119.93615  4    -179.87772  0
 C                    3     1.40101  1     119.72365  2    -0.26267  0
 H                    3     0.99022  1     119.18862  2     178.85398  0
 C                    4     1.37899  2     120.45786  1    -0.48041  0
 H                    4     0.98347  2     120.30443  1     179.36167  0
 O                    6     1.2746   1     118.00615  2    -1.25977  0
 O                    6     1.26363  1     118.77715  2     179.20604  0
 H                    7     0.98977  3     119.37862  1    -178.93546  0
 H                    9     0.99498  4     119.46723  2    -178.58827  0
 H                    11    0.8968   6     118.15824  1    -250.     0
 
 ITRead=  0  0  0  0  0  0  0  0  0  0  0  0  0  0  0
 MicOpt= -1 -1 -1 -1 -1 -1 -1 -1 -1 -1 -1 -1 -1 -1 -1
 NAtoms=     15 NQM=       15 NQMF=       0 NMMI=      0 NMMIF=      0
                NMic=       0 NMicF=      0.
                    Isotopes and Nuclear Properties:
 (Nuclear quadrupole moments (NQMom) in fm**2, nuclear magnetic moments (NMagM)
  in nuclear magnetons)

  Atom         1           2           3           4           5           6           7           8           9          10
 IAtWgt=          12          12          12          12           1          12          12           1          12           1
 AtmWgt=  12.0000000  12.0000000  12.0000000  12.0000000   1.0078250  12.0000000  12.0000000   1.0078250  12.0000000   1.0078250
 NucSpn=           0           0           0           0           1           0           0           1           0           1
 AtZEff=  -0.0000000  -0.0000000  -0.0000000  -0.0000000  -0.0000000  -0.0000000  -0.0000000  -0.0000000  -0.0000000  -0.0000000
 NQMom=    0.0000000   0.0000000   0.0000000   0.0000000   0.0000000   0.0000000   0.0000000   0.0000000   0.0000000   0.0000000
 NMagM=    0.0000000   0.0000000   0.0000000   0.0000000   2.7928460   0.0000000   0.0000000   2.7928460   0.0000000   2.7928460
 AtZNuc=   6.0000000   6.0000000   6.0000000   6.0000000   1.0000000   6.0000000   6.0000000   1.0000000   6.0000000   1.0000000

  Atom        11          12          13          14          15
 IAtWgt=          16          16           1           1           1
 AtmWgt=  15.9949146  15.9949146   1.0078250   1.0078250   1.0078250
 NucSpn=           0           0           1           1           1
 AtZEff=  -0.0000000  -0.0000000  -0.0000000  -0.0000000  -0.0000000
 NQMom=    0.0000000   0.0000000   0.0000000   0.0000000   0.0000000
 NMagM=    0.0000000   0.0000000   2.7928460   2.7928460   2.7928460
 AtZNuc=   8.0000000   8.0000000   1.0000000   1.0000000   1.0000000
 Leave Link  101 at Sun Nov 20 17:25:53 2022, MaxMem= 16106127360 cpu:               8.4 elap:               0.3
 (Enter /opt/ap/G16/B01/g16/l202.exe)
                          Input orientation:                          
 ---------------------------------------------------------------------
 Center     Atomic      Atomic             Coordinates (Angstroms)
 Number     Number       Type             X           Y           Z
 ---------------------------------------------------------------------
      1          6           0        0.000000    0.000000    0.000000
      2          6           0        0.000000    0.000000    1.390162
      3          6           0        1.206722    0.000000   -0.693782
      4          6           0        1.202258    0.014862    2.081006
      5          1           0       -0.857581   -0.001388    1.879646
      6          6           0       -1.286190   -0.013155   -0.740711
      7          6           0        2.415349    0.005578    0.014752
      8          1           0        1.194584   -0.017290   -1.683772
      9          6           0        2.400563    0.019708    1.398617
     10          1           0        1.209438    0.024411    3.064408
     11          8           0       -2.365984   -0.048941   -0.064425
     12          8           0       -1.260842    0.002453   -2.003986
     13          1           0        3.270315    0.021574   -0.483669
     14          1           0        3.254554    0.009066    1.909081
     15          1           0       -2.883829    0.683181   -0.054881
 ---------------------------------------------------------------------
                    Distance matrix (angstroms):
                    1          2          3          4          5
     1  C    0.000000
     2  C    1.390162   0.000000
     3  C    1.391945   2.408112   0.000000
     4  C    2.403379   1.386690   2.774832   0.000000
     5  H    2.066039   0.987443   3.299073   2.069721   0.000000
     6  C    1.484288   2.488991   2.493388   3.762345   2.655206
     7  C    2.415401   2.779513   1.401011   2.396056   3.766955
     8  H    2.064563   3.297939   0.990215   3.764924   4.112127
     9  C    2.778349   2.400659   2.409104   1.378990   3.293530
    10  H    3.294530   2.065535   3.758270   0.983474   2.382624
    11  O    2.367367   2.777786   3.628045   4.164047   2.461088
    12  O    2.367633   3.620769   2.793834   4.770133   3.904515
    13  H    3.305958   3.769173   2.074374   3.294611   4.756607
    14  H    3.773167   3.295676   3.311886   2.059493   4.112253
    15  H    2.964156   3.297174   4.196134   4.658838   2.883871
                    6          7          8          9         10
     6  C    0.000000
     7  C    3.777892   0.000000
     8  H    2.653982   2.091836   0.000000
     9  C    4.262622   1.384016   3.310118   0.000000
    10  H    4.550659   3.279477   4.748386   2.047842   0.000000
    11  O    1.274598   4.782299   3.911641   4.986499   4.751696
    12  O    1.263626   4.194007   2.476296   4.998389   5.638384
    13  H    4.563881   0.989771   2.398003   2.073517   4.103177
    14  H    5.257398   2.071897   4.141589   0.994981   2.348938
    15  H    1.872885   5.342779   4.447179   5.520657   5.188331
                   11         12         13         14         15
    11  O    0.000000
    12  O    2.232908   0.000000
    13  H    5.652309   4.779447   0.000000
    14  H    5.957225   5.975025   2.392834   0.000000
    15  H    0.896804   2.626117   6.204440   6.480071   0.000000
 Stoichiometry    C7H6O2
 Framework group  C1[X(C7H6O2)]
 Deg. of freedom    39
 Full point group                 C1      NOp   1
 Largest Abelian subgroup         C1      NOp   1
 Largest concise Abelian subgroup C1      NOp   1
                         Standard orientation:                         
 ---------------------------------------------------------------------
 Center     Atomic      Atomic             Coordinates (Angstroms)
 Number     Number       Type             X           Y           Z
 ---------------------------------------------------------------------
      1          6           0       -0.227537    0.032977   -0.007944
      2          6           0        0.434113   -1.189597   -0.016933
      3          6           0        0.503533    1.217437    0.002229
      4          6           0        1.820256   -1.225087   -0.000872
      5          1           0       -0.087132   -2.028211   -0.025527
      6          6           0       -1.711232    0.072362   -0.022371
      7          6           0        1.903708    1.169495    0.008921
      8          1           0        0.021689    2.082442   -0.008717
      9          6           0        2.549341   -0.054691    0.014034
     10          1           0        2.294613   -2.086595    0.002352
     11          8           0       -2.338961   -1.036018   -0.067617
     12          8           0       -2.290213    1.195287    0.001524
     13          1           0        2.418384    2.014607    0.032169
     14          1           0        3.543369   -0.097093    0.004115
     15          1           0       -2.790630   -1.296675    0.661979
 ---------------------------------------------------------------------
 Rotational constants (GHZ):           3.9335162           1.2455545           0.9478277
 Leave Link  202 at Sun Nov 20 17:25:53 2022, MaxMem= 16106127360 cpu:               2.0 elap:               0.1
 (Enter /opt/ap/G16/B01/g16/l301.exe)
 Standard basis: 6-311++G(d,p) (5D, 7F)
 Ernie: Thresh=  0.10000D-02 Tol=  0.10000D-05 Strict=F.
 There are   249 symmetry adapted cartesian basis functions of A   symmetry.
 There are   240 symmetry adapted basis functions of A   symmetry.
   240 basis functions,   378 primitive gaussians,   249 cartesian basis functions
    32 alpha electrons       32 beta electrons
       nuclear repulsion energy       409.7672520625 Hartrees.
 IExCor= 4639 DFT=T Ex+Corr=wB97XD ExCW=0 ScaHFX=  1.000000
 ScaDFX=  1.000000  1.000000  1.000000  1.000000 ScalE2=  1.000000  1.000000
 IRadAn=      5 IRanWt=     -1 IRanGd=            0 ICorTp=0 IEmpDi=121
 HFx  wShort=  0.000000 wLong=  0.200000 cFull=  0.222036 cShort=  0.000000 cLong=  0.777964
 DFx  wShort=  0.000000 wLong=  0.200000 cFull=  0.000000 cShort=  0.000000 cLong=  1.000000
 NAtoms=   15 NActive=   15 NUniq=   15 SFac= 1.00D+00 NAtFMM=   60 NAOKFM=F Big=F
 Integral buffers will be    131072 words long.
 Raffenetti 2 integral format.
 Two-electron integral symmetry is turned on.
 R6Disp:  Grimme-D2 Dispersion energy=       -0.0065014149 Hartrees.
 Nuclear repulsion after empirical dispersion term =      409.7607506475 Hartrees.
 Leave Link  301 at Sun Nov 20 17:25:53 2022, MaxMem= 16106127360 cpu:               1.2 elap:               0.0
 (Enter /opt/ap/G16/B01/g16/l302.exe)
 NPDir=0 NMtPBC=     1 NCelOv=     1 NCel=       1 NClECP=     1 NCelD=      1
         NCelK=      1 NCelE2=     1 NClLst=     1 CellRange=     0.0.
 One-electron integrals computed using PRISM.
 One-electron integral symmetry used in STVInt
 NBasis=   240 RedAO= T EigKep=  1.20D-06  NBF=   240
 NBsUse=   240 1.00D-06 EigRej= -1.00D+00 NBFU=   240
 Precomputing XC quadrature grid using
 IXCGrd= 4 IRadAn=           5 IRanWt=          -1 IRanGd=           0 AccXCQ= 0.00D+00.
 Generated NRdTot=       0 NPtTot=           0 NUsed=           0 NTot=          32
 NSgBfM=   249   249   249   249   249 MxSgAt=    15 MxSgA2=    15.
 Leave Link  302 at Sun Nov 20 17:25:53 2022, MaxMem= 16106127360 cpu:               5.3 elap:               0.2
 (Enter /opt/ap/G16/B01/g16/l303.exe)
 DipDrv:  MaxL=1.
 Leave Link  303 at Sun Nov 20 17:25:53 2022, MaxMem= 16106127360 cpu:               1.1 elap:               0.0
 (Enter /opt/ap/G16/B01/g16/l401.exe)
 ExpMin= 3.60D-02 ExpMax= 8.59D+03 ExpMxC= 1.30D+03 IAcc=3 IRadAn=         5 AccDes= 0.00D+00
 Harris functional with IExCor= 4639 and IRadAn=       5 diagonalized for initial guess.
 HarFok:  IExCor= 4639 AccDes= 0.00D+00 IRadAn=         5 IDoV= 1 UseB2=F ITyADJ=14
 ICtDFT=  3500011 ScaDFX=  1.000000  1.000000  1.000000  1.000000
 FoFCou: FMM=F IPFlag=           0 FMFlag=      100000 FMFlg1=           0
         NFxFlg=           0 DoJE=T BraDBF=F KetDBF=T FulRan=T
         wScrn=  0.000000 ICntrl=       500 IOpCl=  0 I1Cent=   200000004 NGrid=           0
         NMat0=    1 NMatS0=      1 NMatT0=    0 NMatD0=    1 NMtDS0=    0 NMtDT0=    0
 Petite list used in FoFCou.
 Harris En= -403.240147555238    
 JPrj=0 DoOrth=F DoCkMO=F.
 Leave Link  401 at Sun Nov 20 17:25:53 2022, MaxMem= 16106127360 cpu:              11.6 elap:               0.4
 (Enter /opt/ap/G16/B01/g16/l502.exe)
 Integral symmetry usage will be decided dynamically.
 Closed shell SCF:
 Using DIIS extrapolation, IDIIS=  1040.
 NGot= 16106127360 LenX= 16105992971 LenY= 16105930529
 Requested convergence on RMS density matrix=1.00D-08 within 512 cycles.
 Requested convergence on MAX density matrix=1.00D-06.
 Requested convergence on             energy=1.00D-06.
 No special actions if energy rises.
 Fock matrices will be formed incrementally for  20 cycles.

 Cycle   1  Pass 1  IDiag  1:
 FoFJK:  IHMeth= 1 ICntrl=       0 DoSepK=T KAlg= 0 I1Cent=           0 FoldK=F
 IRaf=         1 NMat=       1 IRICut=       1 DoRegI=T DoRafI=F ISym2E= 0 IDoP0=0 IntGTp=1.
 FoFCou: FMM=F IPFlag=           0 FMFlag=      100000 FMFlg1=           0
         NFxFlg=           0 DoJE=T BraDBF=F KetDBF=F FulRan=T
         wScrn=  0.000000 ICntrl=       500 IOpCl=  0 I1Cent=           0 NGrid=           0
         NMat0=    1 NMatS0=      1 NMatT0=    0 NMatD0=    1 NMtDS0=    0 NMtDT0=    0
 Symmetry not used in FoFCou.
 E= -420.618695244879    
 DIIS: error= 5.24D-02 at cycle   1 NSaved=   1.
 NSaved= 1 IEnMin= 1 EnMin= -420.618695244879     IErMin= 1 ErrMin= 5.24D-02
 ErrMax= 5.24D-02  0.00D+00 EMaxC= 1.00D-01 BMatC= 8.57D-01 BMatP= 8.57D-01
 IDIUse=3 WtCom= 4.76D-01 WtEn= 5.24D-01
 Coeff-Com:  0.100D+01
 Coeff-En:   0.100D+01
 Coeff:      0.100D+01
 Gap=     0.424 Goal=   None    Shift=    0.000
 GapD=    0.424 DampG=2.000 DampE=0.500 DampFc=1.0000 IDamp=-1.
 RMSDP=3.15D-02 MaxDP=2.07D+00              OVMax= 1.06D-01

 Cycle   2  Pass 1  IDiag  1:
 RMSU=  1.47D-02    CP:  6.49D-01
 E= -420.692357758046     Delta-E=       -0.073662513166 Rises=F Damp=F
 DIIS: error= 1.05D-02 at cycle   2 NSaved=   2.
 NSaved= 2 IEnMin= 2 EnMin= -420.692357758046     IErMin= 2 ErrMin= 1.05D-02
 ErrMax= 1.05D-02  0.00D+00 EMaxC= 1.00D-01 BMatC= 4.68D-02 BMatP= 8.57D-01
 IDIUse=3 WtCom= 8.95D-01 WtEn= 1.05D-01
 Coeff-Com:  0.123D+00 0.877D+00
 Coeff-En:   0.271D-01 0.973D+00
 Coeff:      0.113D+00 0.887D+00
 Gap=     0.421 Goal=   None    Shift=    0.000
 RMSDP=8.03D-03 MaxDP=5.96D-01 DE=-7.37D-02 OVMax= 7.59D-02

 Cycle   3  Pass 1  IDiag  1:
 RMSU=  5.94D-03    CP:  6.11D-01  6.94D-01
 E= -420.709592958073     Delta-E=       -0.017235200028 Rises=F Damp=F
 DIIS: error= 8.83D-03 at cycle   3 NSaved=   3.
 NSaved= 3 IEnMin= 3 EnMin= -420.709592958073     IErMin= 3 ErrMin= 8.83D-03
 ErrMax= 8.83D-03  0.00D+00 EMaxC= 1.00D-01 BMatC= 2.45D-02 BMatP= 4.68D-02
 IDIUse=3 WtCom= 9.12D-01 WtEn= 8.83D-02
 Coeff-Com:  0.235D-01 0.427D+00 0.549D+00
 Coeff-En:   0.000D+00 0.341D+00 0.659D+00
 Coeff:      0.214D-01 0.420D+00 0.559D+00
 Gap=     0.360 Goal=   None    Shift=    0.000
 RMSDP=3.55D-03 MaxDP=2.61D-01 DE=-1.72D-02 OVMax= 3.18D-02

 Cycle   4  Pass 1  IDiag  1:
 RMSU=  1.28D-03    CP:  6.02D-01  8.60D-01  6.46D-01
 E= -420.729405676597     Delta-E=       -0.019812718524 Rises=F Damp=F
 DIIS: error= 1.58D-03 at cycle   4 NSaved=   4.
 NSaved= 4 IEnMin= 4 EnMin= -420.729405676597     IErMin= 4 ErrMin= 1.58D-03
 ErrMax= 1.58D-03  0.00D+00 EMaxC= 1.00D-01 BMatC= 8.29D-04 BMatP= 2.45D-02
 IDIUse=3 WtCom= 9.84D-01 WtEn= 1.58D-02
 Coeff-Com:  0.961D-02 0.208D+00 0.296D+00 0.487D+00
 Coeff-En:   0.000D+00 0.000D+00 0.000D+00 0.100D+01
 Coeff:      0.946D-02 0.204D+00 0.291D+00 0.495D+00
 Gap=     0.342 Goal=   None    Shift=    0.000
 RMSDP=8.30D-04 MaxDP=6.20D-02 DE=-1.98D-02 OVMax= 6.63D-03

 Cycle   5  Pass 1  IDiag  1:
 RMSU=  5.64D-04    CP:  5.96D-01  8.49D-01  6.80D-01  7.88D-01
 E= -420.729975681217     Delta-E=       -0.000570004619 Rises=F Damp=F
 DIIS: error= 4.09D-04 at cycle   5 NSaved=   5.
 NSaved= 5 IEnMin= 5 EnMin= -420.729975681217     IErMin= 5 ErrMin= 4.09D-04
 ErrMax= 4.09D-04  0.00D+00 EMaxC= 1.00D-01 BMatC= 5.08D-05 BMatP= 8.29D-04
 IDIUse=3 WtCom= 9.96D-01 WtEn= 4.09D-03
 Coeff-Com:  0.112D-03 0.106D-01 0.249D-01 0.198D+00 0.766D+00
 Coeff-En:   0.000D+00 0.000D+00 0.000D+00 0.000D+00 0.100D+01
 Coeff:      0.111D-03 0.105D-01 0.248D-01 0.198D+00 0.767D+00
 Gap=     0.342 Goal=   None    Shift=    0.000
 RMSDP=2.21D-04 MaxDP=1.34D-02 DE=-5.70D-04 OVMax= 2.17D-03

 Cycle   6  Pass 1  IDiag  1:
 RMSU=  1.24D-04    CP:  5.94D-01  8.51D-01  6.97D-01  8.06D-01  1.04D+00
 E= -420.730015235312     Delta-E=       -0.000039554095 Rises=F Damp=F
 DIIS: error= 1.55D-04 at cycle   6 NSaved=   6.
 NSaved= 6 IEnMin= 6 EnMin= -420.730015235312     IErMin= 6 ErrMin= 1.55D-04
 ErrMax= 1.55D-04  0.00D+00 EMaxC= 1.00D-01 BMatC= 7.28D-06 BMatP= 5.08D-05
 IDIUse=3 WtCom= 9.98D-01 WtEn= 1.55D-03
 Coeff-Com: -0.102D-02-0.181D-01-0.208D-01 0.317D-01 0.353D+00 0.656D+00
 Coeff-En:   0.000D+00 0.000D+00 0.000D+00 0.000D+00 0.000D+00 0.100D+01
 Coeff:     -0.102D-02-0.181D-01-0.208D-01 0.317D-01 0.352D+00 0.656D+00
 Gap=     0.343 Goal=   None    Shift=    0.000
 RMSDP=1.55D-04 MaxDP=1.23D-02 DE=-3.96D-05 OVMax= 8.23D-04

 Cycle   7  Pass 1  IDiag  1:
 RMSU=  3.92D-05    CP:  5.92D-01  8.49D-01  7.06D-01  8.18D-01  1.15D+00
                    CP:  1.04D+00
 E= -420.730022118615     Delta-E=       -0.000006883303 Rises=F Damp=F
 DIIS: error= 7.47D-05 at cycle   7 NSaved=   7.
 NSaved= 7 IEnMin= 7 EnMin= -420.730022118615     IErMin= 7 ErrMin= 7.47D-05
 ErrMax= 7.47D-05  0.00D+00 EMaxC= 1.00D-01 BMatC= 3.05D-07 BMatP= 7.28D-06
 IDIUse=1 WtCom= 1.00D+00 WtEn= 0.00D+00
 Coeff-Com: -0.275D-03-0.624D-02-0.825D-02-0.147D-01 0.180D-01 0.153D+00
 Coeff-Com:  0.858D+00
 Coeff:     -0.275D-03-0.624D-02-0.825D-02-0.147D-01 0.180D-01 0.153D+00
 Coeff:      0.858D+00
 Gap=     0.343 Goal=   None    Shift=    0.000
 RMSDP=3.78D-05 MaxDP=2.01D-03 DE=-6.88D-06 OVMax= 3.69D-04

 Cycle   8  Pass 1  IDiag  1:
 RMSU=  1.21D-05    CP:  5.92D-01  8.49D-01  7.08D-01  8.20D-01  1.19D+00
                    CP:  1.09D+00  1.09D+00
 E= -420.730022689952     Delta-E=       -0.000000571337 Rises=F Damp=F
 DIIS: error= 1.70D-05 at cycle   8 NSaved=   8.
 NSaved= 8 IEnMin= 8 EnMin= -420.730022689952     IErMin= 8 ErrMin= 1.70D-05
 ErrMax= 1.70D-05  0.00D+00 EMaxC= 1.00D-01 BMatC= 4.81D-08 BMatP= 3.05D-07
 IDIUse=1 WtCom= 1.00D+00 WtEn= 0.00D+00
 Coeff-Com:  0.176D-04-0.529D-04-0.405D-03-0.934D-02-0.341D-01-0.293D-01
 Coeff-Com:  0.274D+00 0.799D+00
 Coeff:      0.176D-04-0.529D-04-0.405D-03-0.934D-02-0.341D-01-0.293D-01
 Coeff:      0.274D+00 0.799D+00
 Gap=     0.343 Goal=   None    Shift=    0.000
 RMSDP=1.33D-05 MaxDP=7.38D-04 DE=-5.71D-07 OVMax= 1.37D-04

 Cycle   9  Pass 1  IDiag  1:
 RMSU=  6.26D-06    CP:  5.92D-01  8.49D-01  7.08D-01  8.18D-01  1.21D+00
                    CP:  1.11D+00  1.13D+00  1.20D+00
 E= -420.730022769754     Delta-E=       -0.000000079801 Rises=F Damp=F
 DIIS: error= 1.01D-05 at cycle   9 NSaved=   9.
 NSaved= 9 IEnMin= 9 EnMin= -420.730022769754     IErMin= 9 ErrMin= 1.01D-05
 ErrMax= 1.01D-05  0.00D+00 EMaxC= 1.00D-01 BMatC= 6.46D-09 BMatP= 4.81D-08
 IDIUse=1 WtCom= 1.00D+00 WtEn= 0.00D+00
 Coeff-Com:  0.422D-04 0.807D-03 0.924D-03-0.154D-02-0.129D-01-0.313D-01
 Coeff-Com: -0.107D-01 0.277D+00 0.778D+00
 Coeff:      0.422D-04 0.807D-03 0.924D-03-0.154D-02-0.129D-01-0.313D-01
 Coeff:     -0.107D-01 0.277D+00 0.778D+00
 Gap=     0.343 Goal=   None    Shift=    0.000
 RMSDP=4.88D-06 MaxDP=2.30D-04 DE=-7.98D-08 OVMax= 5.11D-05

 Cycle  10  Pass 1  IDiag  1:
 RMSU=  1.96D-06    CP:  5.92D-01  8.49D-01  7.08D-01  8.17D-01  1.22D+00
                    CP:  1.12D+00  1.14D+00  1.29D+00  1.22D+00
 E= -420.730022779400     Delta-E=       -0.000000009646 Rises=F Damp=F
 DIIS: error= 1.39D-06 at cycle  10 NSaved=  10.
 NSaved=10 IEnMin=10 EnMin= -420.730022779400     IErMin=10 ErrMin= 1.39D-06
 ErrMax= 1.39D-06  0.00D+00 EMaxC= 1.00D-01 BMatC= 7.60D-10 BMatP= 6.46D-09
 IDIUse=1 WtCom= 1.00D+00 WtEn= 0.00D+00
 Coeff-Com:  0.995D-05 0.212D-03 0.259D-03 0.401D-03 0.426D-03-0.666D-02
 Coeff-Com: -0.299D-01-0.730D-02 0.242D+00 0.801D+00
 Coeff:      0.995D-05 0.212D-03 0.259D-03 0.401D-03 0.426D-03-0.666D-02
 Coeff:     -0.299D-01-0.730D-02 0.242D+00 0.801D+00
 Gap=     0.343 Goal=   None    Shift=    0.000
 RMSDP=1.98D-06 MaxDP=1.59D-04 DE=-9.65D-09 OVMax= 1.44D-05

 Cycle  11  Pass 1  IDiag  1:
 RMSU=  5.97D-07    CP:  5.92D-01  8.49D-01  7.08D-01  8.16D-01  1.22D+00
                    CP:  1.12D+00  1.14D+00  1.35D+00  1.36D+00  1.19D+00
 E= -420.730022780524     Delta-E=       -0.000000001124 Rises=F Damp=F
 DIIS: error= 5.41D-07 at cycle  11 NSaved=  11.
 NSaved=11 IEnMin=11 EnMin= -420.730022780524     IErMin=11 ErrMin= 5.41D-07
 ErrMax= 5.41D-07  0.00D+00 EMaxC= 1.00D-01 BMatC= 9.49D-11 BMatP= 7.60D-10
 IDIUse=1 WtCom= 1.00D+00 WtEn= 0.00D+00
 Coeff-Com: -0.193D-05-0.195D-04-0.148D-04 0.355D-03 0.196D-02 0.131D-02
 Coeff-Com: -0.796D-02-0.425D-01-0.271D-01 0.252D+00 0.822D+00
 Coeff:     -0.193D-05-0.195D-04-0.148D-04 0.355D-03 0.196D-02 0.131D-02
 Coeff:     -0.796D-02-0.425D-01-0.271D-01 0.252D+00 0.822D+00
 Gap=     0.343 Goal=   None    Shift=    0.000
 RMSDP=7.53D-07 MaxDP=5.06D-05 DE=-1.12D-09 OVMax= 7.35D-06

 Cycle  12  Pass 1  IDiag  1:
 RMSU=  1.88D-07    CP:  5.92D-01  8.49D-01  7.08D-01  8.16D-01  1.22D+00
                    CP:  1.12D+00  1.14D+00  1.36D+00  1.40D+00  1.34D+00
                    CP:  1.29D+00
 E= -420.730022780685     Delta-E=       -0.000000000162 Rises=F Damp=F
 DIIS: error= 1.72D-07 at cycle  12 NSaved=  12.
 NSaved=12 IEnMin=12 EnMin= -420.730022780685     IErMin=12 ErrMin= 1.72D-07
 ErrMax= 1.72D-07  0.00D+00 EMaxC= 1.00D-01 BMatC= 8.86D-12 BMatP= 9.49D-11
 IDIUse=1 WtCom= 1.00D+00 WtEn= 0.00D+00
 Coeff-Com: -0.123D-05-0.204D-04-0.224D-04 0.655D-04 0.494D-03 0.703D-03
 Coeff-Com:  0.784D-03-0.104D-01-0.260D-01 0.121D-02 0.222D+00 0.812D+00
 Coeff:     -0.123D-05-0.204D-04-0.224D-04 0.655D-04 0.494D-03 0.703D-03
 Coeff:      0.784D-03-0.104D-01-0.260D-01 0.121D-02 0.222D+00 0.812D+00
 Gap=     0.343 Goal=   None    Shift=    0.000
 RMSDP=1.26D-07 MaxDP=6.58D-06 DE=-1.62D-10 OVMax= 3.27D-06

 Cycle  13  Pass 1  IDiag  1:
 RMSU=  5.37D-08    CP:  5.92D-01  8.49D-01  7.08D-01  8.16D-01  1.22D+00
                    CP:  1.12D+00  1.14D+00  1.36D+00  1.41D+00  1.36D+00
                    CP:  1.36D+00  1.08D+00
 E= -420.730022780711     Delta-E=       -0.000000000025 Rises=F Damp=F
 DIIS: error= 8.08D-08 at cycle  13 NSaved=  13.
 NSaved=13 IEnMin=13 EnMin= -420.730022780711     IErMin=13 ErrMin= 8.08D-08
 ErrMax= 8.08D-08  0.00D+00 EMaxC= 1.00D-01 BMatC= 1.37D-12 BMatP= 8.86D-12
 IDIUse=1 WtCom= 1.00D+00 WtEn= 0.00D+00
 Coeff-Com:  0.889D-07-0.298D-05-0.562D-05-0.568D-04-0.272D-03-0.135D-03
 Coeff-Com:  0.183D-02 0.580D-02-0.628D-03-0.495D-01-0.117D+00 0.146D+00
 Coeff-Com:  0.101D+01
 Coeff:      0.889D-07-0.298D-05-0.562D-05-0.568D-04-0.272D-03-0.135D-03
 Coeff:      0.183D-02 0.580D-02-0.628D-03-0.495D-01-0.117D+00 0.146D+00
 Coeff:      0.101D+01
 Gap=     0.343 Goal=   None    Shift=    0.000
 RMSDP=6.88D-08 MaxDP=5.17D-06 DE=-2.51D-11 OVMax= 2.60D-06

 Cycle  14  Pass 1  IDiag  1:
 RMSU=  2.55D-08    CP:  5.92D-01  8.49D-01  7.08D-01  8.16D-01  1.22D+00
                    CP:  1.12D+00  1.14D+00  1.36D+00  1.42D+00  1.37D+00
                    CP:  1.43D+00  1.20D+00  1.32D+00
 E= -420.730022780715     Delta-E=       -0.000000000005 Rises=F Damp=F
 DIIS: error= 3.62D-08 at cycle  14 NSaved=  14.
 NSaved=14 IEnMin=14 EnMin= -420.730022780715     IErMin=14 ErrMin= 3.62D-08
 ErrMax= 3.62D-08  0.00D+00 EMaxC= 1.00D-01 BMatC= 1.67D-13 BMatP= 1.37D-12
 IDIUse=1 WtCom= 1.00D+00 WtEn= 0.00D+00
 Coeff-Com:  0.134D-06 0.244D-05 0.272D-05-0.110D-04-0.823D-04-0.749D-04
 Coeff-Com:  0.218D-04 0.164D-02 0.283D-02-0.405D-02-0.310D-01-0.909D-01
 Coeff-Com:  0.536D-01 0.107D+01
 Coeff:      0.134D-06 0.244D-05 0.272D-05-0.110D-04-0.823D-04-0.749D-04
 Coeff:      0.218D-04 0.164D-02 0.283D-02-0.405D-02-0.310D-01-0.909D-01
 Coeff:      0.536D-01 0.107D+01
 Gap=     0.343 Goal=   None    Shift=    0.000
 RMSDP=2.14D-08 MaxDP=8.56D-07 DE=-4.77D-12 OVMax= 1.13D-06

 Cycle  15  Pass 1  IDiag  1:
 RMSU=  9.83D-09    CP:  5.92D-01  8.49D-01  7.08D-01  8.16D-01  1.22D+00
                    CP:  1.12D+00  1.14D+00  1.36D+00  1.42D+00  1.37D+00
                    CP:  1.42D+00  1.19D+00  1.51D+00  1.38D+00
 E= -420.730022780717     Delta-E=       -0.000000000001 Rises=F Damp=F
 DIIS: error= 1.93D-08 at cycle  15 NSaved=  15.
 NSaved=15 IEnMin=15 EnMin= -420.730022780717     IErMin=15 ErrMin= 1.93D-08
 ErrMax= 1.93D-08  0.00D+00 EMaxC= 1.00D-01 BMatC= 4.72D-14 BMatP= 1.67D-13
 IDIUse=1 WtCom= 1.00D+00 WtEn= 0.00D+00
 Coeff-Com:  0.269D-07 0.134D-05 0.196D-05 0.625D-05 0.185D-04 0.826D-05
 Coeff-Com: -0.320D-03-0.425D-03 0.101D-02 0.744D-02 0.106D-01-0.547D-01
 Coeff-Com: -0.169D+00 0.373D+00 0.833D+00
 Coeff:      0.269D-07 0.134D-05 0.196D-05 0.625D-05 0.185D-04 0.826D-05
 Coeff:     -0.320D-03-0.425D-03 0.101D-02 0.744D-02 0.106D-01-0.547D-01
 Coeff:     -0.169D+00 0.373D+00 0.833D+00
 Gap=     0.343 Goal=   None    Shift=    0.000
 RMSDP=1.04D-08 MaxDP=4.36D-07 DE=-1.25D-12 OVMax= 4.03D-07

 Cycle  16  Pass 1  IDiag  1:
 RMSU=  4.12D-09    CP:  5.92D-01  8.49D-01  7.08D-01  8.16D-01  1.22D+00
                    CP:  1.12D+00  1.14D+00  1.36D+00  1.42D+00  1.37D+00
                    CP:  1.42D+00  1.19D+00  1.55D+00  1.60D+00  1.28D+00
 E= -420.730022780717     Delta-E=       -0.000000000001 Rises=F Damp=F
 DIIS: error= 8.07D-09 at cycle  16 NSaved=  16.
 NSaved=16 IEnMin=16 EnMin= -420.730022780717     IErMin=16 ErrMin= 8.07D-09
 ErrMax= 8.07D-09  0.00D+00 EMaxC= 1.00D-01 BMatC= 5.93D-15 BMatP= 4.72D-14
 IDIUse=1 WtCom= 1.00D+00 WtEn= 0.00D+00
 Coeff-Com: -0.995D-08 0.349D-07 0.198D-06 0.370D-05 0.184D-04 0.175D-04
 Coeff-Com: -0.114D-03-0.405D-03-0.209D-03 0.322D-02 0.846D-02-0.163D-02
 Coeff-Com: -0.668D-01-0.473D-01 0.269D+00 0.836D+00
 Coeff:     -0.995D-08 0.349D-07 0.198D-06 0.370D-05 0.184D-04 0.175D-04
 Coeff:     -0.114D-03-0.405D-03-0.209D-03 0.322D-02 0.846D-02-0.163D-02
 Coeff:     -0.668D-01-0.473D-01 0.269D+00 0.836D+00
 Gap=     0.343 Goal=   None    Shift=    0.000
 RMSDP=5.24D-09 MaxDP=4.38D-07 DE=-9.09D-13 OVMax= 1.22D-07

 SCF Done:  E(RwB97XD) =  -420.730022781     A.U. after   16 cycles
            NFock= 16  Conv=0.52D-08     -V/T= 2.0014
 KE= 4.201496312182D+02 PE=-1.803041291361D+03 EE= 5.524008867146D+02
 Leave Link  502 at Sun Nov 20 17:26:08 2022, MaxMem= 16106127360 cpu:             455.8 elap:              14.3
 (Enter /opt/ap/G16/B01/g16/l601.exe)
 Copying SCF densities to generalized density rwf, IOpCl= 0 IROHF=0.

 **********************************************************************

            Population analysis using the SCF Density.

 **********************************************************************

 Orbital symmetries:
       Occupied  (A) (A) (A) (A) (A) (A) (A) (A) (A) (A) (A) (A)
                 (A) (A) (A) (A) (A) (A) (A) (A) (A) (A) (A) (A)
                 (A) (A) (A) (A) (A) (A) (A) (A)
       Virtual   (A) (A) (A) (A) (A) (A) (A) (A) (A) (A) (A) (A)
                 (A) (A) (A) (A) (A) (A) (A) (A) (A) (A) (A) (A)
                 (A) (A) (A) (A) (A) (A) (A) (A) (A) (A) (A) (A)
                 (A) (A) (A) (A) (A) (A) (A) (A) (A) (A) (A) (A)
                 (A) (A) (A) (A) (A) (A) (A) (A) (A) (A) (A) (A)
                 (A) (A) (A) (A) (A) (A) (A) (A) (A) (A) (A) (A)
                 (A) (A) (A) (A) (A) (A) (A) (A) (A) (A) (A) (A)
                 (A) (A) (A) (A) (A) (A) (A) (A) (A) (A) (A) (A)
                 (A) (A) (A) (A) (A) (A) (A) (A) (A) (A) (A) (A)
                 (A) (A) (A) (A) (A) (A) (A) (A) (A) (A) (A) (A)
                 (A) (A) (A) (A) (A) (A) (A) (A) (A) (A) (A) (A)
                 (A) (A) (A) (A) (A) (A) (A) (A) (A) (A) (A) (A)
                 (A) (A) (A) (A) (A) (A) (A) (A) (A) (A) (A) (A)
                 (A) (A) (A) (A) (A) (A) (A) (A) (A) (A) (A) (A)
                 (A) (A) (A) (A) (A) (A) (A) (A) (A) (A) (A) (A)
                 (A) (A) (A) (A) (A) (A) (A) (A) (A) (A) (A) (A)
                 (A) (A) (A) (A) (A) (A) (A) (A) (A) (A) (A) (A)
                 (A) (A) (A) (A)
 The electronic state is 1-A.
 Alpha  occ. eigenvalues --  -19.30161 -19.23442 -10.43204 -10.30913 -10.29510
 Alpha  occ. eigenvalues --  -10.29392 -10.29372 -10.29135 -10.28917  -1.25043
 Alpha  occ. eigenvalues --   -1.10926  -0.98180  -0.88715  -0.87165  -0.79773
 Alpha  occ. eigenvalues --   -0.73552  -0.72467  -0.66380  -0.61282  -0.58370
 Alpha  occ. eigenvalues --   -0.56833  -0.56121  -0.53799  -0.53638  -0.48110
 Alpha  occ. eigenvalues --   -0.47249  -0.45293  -0.43766  -0.42026  -0.36245
 Alpha  occ. eigenvalues --   -0.34811  -0.34454
 Alpha virt. eigenvalues --   -0.00198   0.03434   0.04090   0.04434   0.05226
 Alpha virt. eigenvalues --    0.06523   0.07789   0.08735   0.10070   0.10551
 Alpha virt. eigenvalues --    0.11732   0.12898   0.13218   0.14001   0.14457
 Alpha virt. eigenvalues --    0.15947   0.16309   0.16920   0.17236   0.17876
 Alpha virt. eigenvalues --    0.18227   0.19128   0.19901   0.19955   0.20430
 Alpha virt. eigenvalues --    0.21092   0.21422   0.21863   0.23102   0.24185
 Alpha virt. eigenvalues --    0.25402   0.26061   0.26682   0.27272   0.27840
 Alpha virt. eigenvalues --    0.29657   0.29928   0.30588   0.31123   0.32360
 Alpha virt. eigenvalues --    0.32496   0.34459   0.35198   0.35452   0.36038
 Alpha virt. eigenvalues --    0.36601   0.37357   0.38369   0.39204   0.40175
 Alpha virt. eigenvalues --    0.41515   0.42000   0.42612   0.43936   0.46419
 Alpha virt. eigenvalues --    0.47119   0.49745   0.53647   0.54748   0.57931
 Alpha virt. eigenvalues --    0.58857   0.60308   0.61818   0.63029   0.63737
 Alpha virt. eigenvalues --    0.64259   0.64931   0.65995   0.66635   0.69305
 Alpha virt. eigenvalues --    0.70670   0.73576   0.73939   0.74162   0.75940
 Alpha virt. eigenvalues --    0.76513   0.80979   0.82438   0.83711   0.86082
 Alpha virt. eigenvalues --    0.88490   0.90412   0.92625   0.93596   0.94662
 Alpha virt. eigenvalues --    0.96206   0.96410   0.97939   0.99787   1.00459
 Alpha virt. eigenvalues --    1.03128   1.06301   1.07982   1.09923   1.10237
 Alpha virt. eigenvalues --    1.14357   1.14642   1.16358   1.16852   1.18997
 Alpha virt. eigenvalues --    1.21247   1.21978   1.24448   1.28801   1.29174
 Alpha virt. eigenvalues --    1.34472   1.42066   1.44368   1.46150   1.52037
 Alpha virt. eigenvalues --    1.57109   1.59237   1.60462   1.60841   1.62156
 Alpha virt. eigenvalues --    1.63188   1.66724   1.67004   1.69143   1.74347
 Alpha virt. eigenvalues --    1.74843   1.76314   1.80520   1.83787   1.86058
 Alpha virt. eigenvalues --    1.87958   1.89354   1.91552   1.92830   1.99963
 Alpha virt. eigenvalues --    2.00203   2.01615   2.03224   2.04337   2.04833
 Alpha virt. eigenvalues --    2.08013   2.09497   2.16121   2.17860   2.20428
 Alpha virt. eigenvalues --    2.22917   2.24974   2.29449   2.42761   2.46095
 Alpha virt. eigenvalues --    2.51578   2.52499   2.54341   2.58103   2.62971
 Alpha virt. eigenvalues --    2.70462   2.72280   2.75925   2.78296   2.81303
 Alpha virt. eigenvalues --    2.81595   2.83240   2.88154   2.89793   2.90303
 Alpha virt. eigenvalues --    2.90518   2.91722   2.96077   2.99533   2.99931
 Alpha virt. eigenvalues --    3.03222   3.05141   3.06468   3.16678   3.18595
 Alpha virt. eigenvalues --    3.18715   3.22108   3.27904   3.31892   3.40195
 Alpha virt. eigenvalues --    3.43217   3.46570   3.48948   3.52146   3.63161
 Alpha virt. eigenvalues --    3.66415   3.68392   3.73744   3.84432   3.87907
 Alpha virt. eigenvalues --    3.96350   4.18225   4.28557   4.30582   4.36797
 Alpha virt. eigenvalues --    4.40505   4.44958   4.94811   5.15452   5.18813
 Alpha virt. eigenvalues --    5.30335   5.44797   5.82028   6.07823  23.83822
 Alpha virt. eigenvalues --   23.95293  24.14085  24.21216  24.28235  24.30260
 Alpha virt. eigenvalues --   24.41670  50.05037  50.16484
          Condensed to atoms (all electrons):
               1          2          3          4          5          6
     1  C   10.215065  -2.382516  -2.411281   1.755567  -0.029650  -1.942370
     2  C   -2.382516  14.680974  -1.464777  -4.405795   0.634092  -0.435410
     3  C   -2.411281  -1.464777  13.993573  -0.495116  -0.072269  -0.195764
     4  C    1.755567  -4.405795  -0.495116   8.654041  -0.103006  -0.255318
     5  H   -0.029650   0.634092  -0.072269  -0.103006   0.488045  -0.095860
     6  C   -1.942370  -0.435410  -0.195764  -0.255318  -0.095860   7.997500
     7  C    1.311747  -0.508296  -4.431126   1.014820   0.031378  -0.060130
     8  H   -0.057153   0.010332   0.558036  -0.008391  -0.000725  -0.037584
     9  C   -1.271869   1.131478   1.356284  -0.747154   0.008428   0.091647
    10  H    0.029832  -0.113838   0.020511   0.431746  -0.010859   0.009627
    11  O   -0.252191  -0.196860   0.031808   0.059972  -0.032167   0.400253
    12  O   -0.204666  -0.064143  -0.093105   0.053676  -0.004601   0.585609
    13  H    0.032941   0.014074  -0.138578   0.000697   0.000717   0.006803
    14  H    0.013126   0.008047   0.008941  -0.050369   0.000179  -0.007610
    15  H   -0.011278  -0.009195  -0.001475  -0.010565  -0.003291   0.028328
               7          8          9         10         11         12
     1  C    1.311747  -0.057153  -1.271869   0.029832  -0.252191  -0.204666
     2  C   -0.508296   0.010332   1.131478  -0.113838  -0.196860  -0.064143
     3  C   -4.431126   0.558036   1.356284   0.020511   0.031808  -0.093105
     4  C    1.014820  -0.008391  -0.747154   0.431746   0.059972   0.053676
     5  H    0.031378  -0.000725   0.008428  -0.010859  -0.032167  -0.004601
     6  C   -0.060130  -0.037584   0.091647   0.009627   0.400253   0.585609
     7  C    9.072293  -0.112230  -0.907915  -0.007146   0.042070   0.138491
     8  H   -0.112230   0.430030   0.018820   0.000599  -0.003427  -0.006353
     9  C   -0.907915   0.018820   6.501166  -0.038440  -0.024539  -0.021543
    10  H   -0.007146   0.000599  -0.038440   0.471687   0.003211   0.000570
    11  O    0.042070  -0.003427  -0.024539   0.003211   7.986869  -0.115038
    12  O    0.138491  -0.006353  -0.021543   0.000570  -0.115038   8.024515
    13  H    0.451791  -0.008271  -0.034567  -0.001050   0.000902   0.002000
    14  H   -0.041214   0.000236   0.425616  -0.006919  -0.000481  -0.000375
    15  H    0.009073  -0.000426  -0.003020   0.000050   0.312638   0.003349
              13         14         15
     1  C    0.032941   0.013126  -0.011278
     2  C    0.014074   0.008047  -0.009195
     3  C   -0.138578   0.008941  -0.001475
     4  C    0.000697  -0.050369  -0.010565
     5  H    0.000717   0.000179  -0.003291
     6  C    0.006803  -0.007610   0.028328
     7  C    0.451791  -0.041214   0.009073
     8  H   -0.008271   0.000236  -0.000426
     9  C   -0.034567   0.425616  -0.003020
    10  H   -0.001050  -0.006919   0.000050
    11  O    0.000902  -0.000481   0.312638
    12  O    0.002000  -0.000375   0.003349
    13  H    0.464058  -0.006225   0.000085
    14  H   -0.006225   0.469434  -0.000069
    15  H    0.000085  -0.000069   0.361553
 Mulliken charges:
               1
     1  C    1.204696
     2  C   -0.898168
     3  C   -0.665662
     4  C    0.105195
     5  H    0.189588
     6  C   -0.089721
     7  C   -0.003607
     8  H    0.216506
     9  C   -0.484391
    10  H    0.210419
    11  O   -0.213020
    12  O   -0.298385
    13  H    0.214622
    14  H    0.187683
    15  H    0.324244
 Sum of Mulliken charges =  -0.00000
 Mulliken charges with hydrogens summed into heavy atoms:
               1
     1  C    1.204696
     2  C   -0.708580
     3  C   -0.449156
     4  C    0.315613
     6  C   -0.089721
     7  C    0.211015
     9  C   -0.296708
    11  O    0.111224
    12  O   -0.298385
 Electronic spatial extent (au):  <R**2>=           1154.7564
 Charge=             -0.0000 electrons
 Dipole moment (field-independent basis, Debye):
    X=              2.2028    Y=             -2.5172    Z=              1.3150  Tot=              3.5942
 Quadrupole moment (field-independent basis, Debye-Ang):
   XX=            -48.9560   YY=            -48.5557   ZZ=            -52.9103
   XY=              7.9657   XZ=             -4.1734   YZ=             -2.1288
 Traceless Quadrupole moment (field-independent basis, Debye-Ang):
   XX=              1.1847   YY=              1.5850   ZZ=             -2.7696
   XY=              7.9657   XZ=             -4.1734   YZ=             -2.1288
 Octapole moment (field-independent basis, Debye-Ang**2):
  XXX=              6.4470  YYY=             -6.2607  ZZZ=              1.0816  XYY=              4.3865
  XXY=            -23.0179  XXZ=             12.4775  XZZ=            -14.4021  YZZ=             -1.7958
  YYZ=              2.9334  XYZ=              6.4103
 Hexadecapole moment (field-independent basis, Debye-Ang**3):
 XXXX=           -979.4207 YYYY=           -356.3536 ZZZZ=            -58.6718 XXXY=             69.5827
 XXXZ=            -37.5944 YYYX=             21.5873 YYYZ=             -4.7780 ZZZX=             -4.1921
 ZZZY=             -2.1552 XXYY=           -228.0036 XXZZ=           -184.6018 YYZZ=            -77.2424
 XXYZ=            -17.8362 YYXZ=             -8.5080 ZZXY=              5.7477
 N-N= 4.097607506475D+02 E-N=-1.803041290894D+03  KE= 4.201496312182D+02
 No NMR shielding tensors so no spin-rotation constants.
 Leave Link  601 at Sun Nov 20 17:26:08 2022, MaxMem= 16106127360 cpu:               4.0 elap:               0.1
 (Enter /opt/ap/G16/B01/g16/l9999.exe)
 1\1\GINC-N02\SP\RwB97XD\6-311++G(d,p)\C7H6O2\ROOT\20-Nov-2022\0\\#P wB
 97XD/6-311++G(d,p) scf=maxcycle=512\\_conf004.gjf nmol_natom 1_15\\0,1
 \C\C,1,1.39016191\C,1,1.39194539,2,119.895942\C,2,1.38669027,1,119.880
 75721,3,0.70825972,0\H,2,0.98744251,1,119.71654057,3,-179.90726164,0\C
 ,1,1.48428757,2,119.93615286,4,-179.87772406,0\C,3,1.40101108,1,119.72
 36454,2,-0.26266839,0\H,3,0.9902154,1,119.1886159,2,178.85397616,0\C,4
 ,1.37899003,2,120.45785903,1,-0.48041454,0\H,4,0.9834739,2,120.3044270
 6,1,179.36166981,0\O,6,1.27459751,1,118.00615353,2,-1.25976832,0\O,6,1
 .26362572,1,118.77715367,2,179.20603801,0\H,7,0.98977053,3,119.3786157
 8,1,-178.93545741,0\H,9,0.99498061,4,119.46722635,2,-178.58826714,0\H,
 11,0.89680392,6,118.15823763,1,-250.,0\\Version=ES64L-G16RevB.01\State
 =1-A\HF=-420.7300228\RMSD=5.243e-09\Dipole=0.2932925,0.5242613,1.28010
 98\Quadrupole=5.8730759,-2.0271281,-3.8459478,-3.5412187,-3.3414609,-0
 .0806616\PG=C01 [X(C7H6O2)]\\@


 THE MORE ACCURATE THE CALCULATIONS BECOME, THE MORE THE CONCEPTS
 TEND TO VANISH INTO THIN AIR.
     -- R.S. MULLIKEN, J.C.P. 43,S2(1965)
 Job cpu time:       0 days  0 hours  8 minutes 14.1 seconds.
 Elapsed time:       0 days  0 hours  0 minutes 15.6 seconds.
 File lengths (MBytes):  RWF=     35 Int=      0 D2E=      0 Chk=      4 Scr=      1
 Normal termination of Gaussian 16 at Sun Nov 20 17:26:08 2022.
