 Entering Gaussian System, Link 0=g16
 Input=_conf001.gjf
 Output=_conf001.log
 Initial command:
 /opt/ap/G16/B01/g16/l1.exe "/tmp2/scr/Gau-15951.inp" -scrdir="/tmp2/scr/"
 Entering Link 1 = /opt/ap/G16/B01/g16/l1.exe PID=     15952.
  
 Copyright (c) 1988-2017, Gaussian, Inc.  All Rights Reserved.
  
 This is part of the Gaussian(R) 16 program.  It is based on
 the Gaussian(R) 09 system (copyright 2009, Gaussian, Inc.),
 the Gaussian(R) 03 system (copyright 2003, Gaussian, Inc.),
 the Gaussian(R) 98 system (copyright 1998, Gaussian, Inc.),
 the Gaussian(R) 94 system (copyright 1995, Gaussian, Inc.),
 the Gaussian 92(TM) system (copyright 1992, Gaussian, Inc.),
 the Gaussian 90(TM) system (copyright 1990, Gaussian, Inc.),
 the Gaussian 88(TM) system (copyright 1988, Gaussian, Inc.),
 the Gaussian 86(TM) system (copyright 1986, Carnegie Mellon
 University), and the Gaussian 82(TM) system (copyright 1983,
 Carnegie Mellon University). Gaussian is a federally registered
 trademark of Gaussian, Inc.
  
 This software contains proprietary and confidential information,
 including trade secrets, belonging to Gaussian, Inc.
  
 This software is provided under written license and may be
 used, copied, transmitted, or stored only in accord with that
 written license.
  
 The following legend is applicable only to US Government
 contracts under FAR:
  
                    RESTRICTED RIGHTS LEGEND
  
 Use, reproduction and disclosure by the US Government is
 subject to restrictions as set forth in subparagraphs (a)
 and (c) of the Commercial Computer Software - Restricted
 Rights clause in FAR 52.227-19.
  
 Gaussian, Inc.
 340 Quinnipiac St., Bldg. 40, Wallingford CT 06492
  
  
 ---------------------------------------------------------------
 Warning -- This program may not be used in any manner that
 competes with the business of Gaussian, Inc. or will provide
 assistance to any competitor of Gaussian, Inc.  The licensee
 of this program is prohibited from giving any competitor of
 Gaussian, Inc. access to this program.  By using this program,
 the user acknowledges that Gaussian, Inc. is engaged in the
 business of creating and licensing software in the field of
 computational chemistry and represents and warrants to the
 licensee that it is not a competitor of Gaussian, Inc. and that
 it will not use this program in any manner prohibited above.
 ---------------------------------------------------------------
  

 Cite this work as:
 Gaussian 16, Revision B.01,
 M. J. Frisch, G. W. Trucks, H. B. Schlegel, G. E. Scuseria, 
 M. A. Robb, J. R. Cheeseman, G. Scalmani, V. Barone, 
 G. A. Petersson, H. Nakatsuji, X. Li, M. Caricato, A. V. Marenich, 
 J. Bloino, B. G. Janesko, R. Gomperts, B. Mennucci, H. P. Hratchian, 
 J. V. Ortiz, A. F. Izmaylov, J. L. Sonnenberg, D. Williams-Young, 
 F. Ding, F. Lipparini, F. Egidi, J. Goings, B. Peng, A. Petrone, 
 T. Henderson, D. Ranasinghe, V. G. Zakrzewski, J. Gao, N. Rega, 
 G. Zheng, W. Liang, M. Hada, M. Ehara, K. Toyota, R. Fukuda, 
 J. Hasegawa, M. Ishida, T. Nakajima, Y. Honda, O. Kitao, H. Nakai, 
 T. Vreven, K. Throssell, J. A. Montgomery, Jr., J. E. Peralta, 
 F. Ogliaro, M. J. Bearpark, J. J. Heyd, E. N. Brothers, K. N. Kudin, 
 V. N. Staroverov, T. A. Keith, R. Kobayashi, J. Normand, 
 K. Raghavachari, A. P. Rendell, J. C. Burant, S. S. Iyengar, 
 J. Tomasi, M. Cossi, J. M. Millam, M. Klene, C. Adamo, R. Cammi, 
 J. W. Ochterski, R. L. Martin, K. Morokuma, O. Farkas, 
 J. B. Foresman, and D. J. Fox, Gaussian, Inc., Wallingford CT, 2016.
 
 ******************************************
 Gaussian 16:  ES64L-G16RevB.01 20-Dec-2017
                20-Nov-2022 
 ******************************************
 %nprocshared=32
 Will use up to   32 processors via shared memory.
 %mem=120GB
 %chk=_conf001.chk
 ----------------------------------------
 #P wB97XD/6-311++G(d,p) scf=maxcycle=512
 ----------------------------------------
 1/38=1,172=1/1;
 2/12=2,17=6,18=5,40=1/2;
 3/5=4,6=6,7=1111,11=2,25=1,30=1,74=-58/1,2,3;
 4//1;
 5/5=2,7=512,38=5/2;
 6/7=2,8=2,9=2,10=2,28=1/1;
 99/5=1,9=1/99;
 Leave Link    1 at Sun Nov 20 17:25:38 2022, MaxMem= 16106127360 cpu:               2.4 elap:               0.1
 (Enter /opt/ap/G16/B01/g16/l101.exe)
 ----------------------------
 _conf001.gjf nmol_natom 1_15
 ----------------------------
 Symbolic Z-matrix:
 Charge =  0 Multiplicity = 1
 C
 C                    1     1.39016 
 C                    1     1.39195  2     119.89594 
 C                    2     1.38669  1     119.88076  3     0.70826  0
 H                    2     0.98744  1     119.71654  3    -179.90726  0
 C                    1     1.48429  2     119.93615  4    -179.87772  0
 C                    3     1.40101  1     119.72365  2    -0.26267  0
 H                    3     0.99022  1     119.18862  2     178.85398  0
 C                    4     1.37899  2     120.45786  1    -0.48041  0
 H                    4     0.98347  2     120.30443  1     179.36167  0
 O                    6     1.2746   1     118.00615  2    -1.25977  0
 O                    6     1.26363  1     118.77715  2     179.20604  0
 H                    7     0.98977  3     119.37862  1    -178.93546  0
 H                    9     0.99498  4     119.46723  2    -178.58827  0
 H                    11    0.8968   6     118.15824  1    -265.     0
 
 ITRead=  0  0  0  0  0  0  0  0  0  0  0  0  0  0  0
 MicOpt= -1 -1 -1 -1 -1 -1 -1 -1 -1 -1 -1 -1 -1 -1 -1
 NAtoms=     15 NQM=       15 NQMF=       0 NMMI=      0 NMMIF=      0
                NMic=       0 NMicF=      0.
                    Isotopes and Nuclear Properties:
 (Nuclear quadrupole moments (NQMom) in fm**2, nuclear magnetic moments (NMagM)
  in nuclear magnetons)

  Atom         1           2           3           4           5           6           7           8           9          10
 IAtWgt=          12          12          12          12           1          12          12           1          12           1
 AtmWgt=  12.0000000  12.0000000  12.0000000  12.0000000   1.0078250  12.0000000  12.0000000   1.0078250  12.0000000   1.0078250
 NucSpn=           0           0           0           0           1           0           0           1           0           1
 AtZEff=  -0.0000000  -0.0000000  -0.0000000  -0.0000000  -0.0000000  -0.0000000  -0.0000000  -0.0000000  -0.0000000  -0.0000000
 NQMom=    0.0000000   0.0000000   0.0000000   0.0000000   0.0000000   0.0000000   0.0000000   0.0000000   0.0000000   0.0000000
 NMagM=    0.0000000   0.0000000   0.0000000   0.0000000   2.7928460   0.0000000   0.0000000   2.7928460   0.0000000   2.7928460
 AtZNuc=   6.0000000   6.0000000   6.0000000   6.0000000   1.0000000   6.0000000   6.0000000   1.0000000   6.0000000   1.0000000

  Atom        11          12          13          14          15
 IAtWgt=          16          16           1           1           1
 AtmWgt=  15.9949146  15.9949146   1.0078250   1.0078250   1.0078250
 NucSpn=           0           0           1           1           1
 AtZEff=  -0.0000000  -0.0000000  -0.0000000  -0.0000000  -0.0000000
 NQMom=    0.0000000   0.0000000   0.0000000   0.0000000   0.0000000
 NMagM=    0.0000000   0.0000000   2.7928460   2.7928460   2.7928460
 AtZNuc=   8.0000000   8.0000000   1.0000000   1.0000000   1.0000000
 Leave Link  101 at Sun Nov 20 17:25:38 2022, MaxMem= 16106127360 cpu:               6.3 elap:               0.2
 (Enter /opt/ap/G16/B01/g16/l202.exe)
                          Input orientation:                          
 ---------------------------------------------------------------------
 Center     Atomic      Atomic             Coordinates (Angstroms)
 Number     Number       Type             X           Y           Z
 ---------------------------------------------------------------------
      1          6           0        0.000000    0.000000    0.000000
      2          6           0        0.000000    0.000000    1.390162
      3          6           0        1.206722    0.000000   -0.693782
      4          6           0        1.202258    0.014862    2.081006
      5          1           0       -0.857581   -0.001388    1.879646
      6          6           0       -1.286190   -0.013155   -0.740711
      7          6           0        2.415349    0.005578    0.014752
      8          1           0        1.194584   -0.017290   -1.683772
      9          6           0        2.400563    0.019708    1.398617
     10          1           0        1.209438    0.024411    3.064408
     11          8           0       -2.365984   -0.048941   -0.064425
     12          8           0       -1.260842    0.002453   -2.003986
     13          1           0        3.270315    0.021574   -0.483669
     14          1           0        3.254554    0.009066    1.909081
     15          1           0       -2.777792    0.726851    0.116735
 ---------------------------------------------------------------------
                    Distance matrix (angstroms):
                    1          2          3          4          5
     1  C    0.000000
     2  C    1.390162   0.000000
     3  C    1.391945   2.408112   0.000000
     4  C    2.403379   1.386690   2.774832   0.000000
     5  H    2.066039   0.987443   3.299073   2.069721   0.000000
     6  C    1.484288   2.488991   2.493388   3.762345   2.655206
     7  C    2.415401   2.779513   1.401011   2.396056   3.766955
     8  H    2.064563   3.297939   0.990215   3.764924   4.112127
     9  C    2.778349   2.400659   2.409104   1.378990   3.293530
    10  H    3.294530   2.065535   3.758270   0.983474   2.382624
    11  O    2.367367   2.777786   3.628045   4.164047   2.461088
    12  O    2.367633   3.620769   2.793834   4.770133   3.904515
    13  H    3.305958   3.769173   2.074374   3.294611   4.756607
    14  H    3.773167   3.295676   3.311886   2.059493   4.112253
    15  H    2.873685   3.141028   4.130569   4.495117   2.706547
                    6          7          8          9         10
     6  C    0.000000
     7  C    3.777892   0.000000
     8  H    2.653982   2.091836   0.000000
     9  C    4.262622   1.384016   3.310118   0.000000
    10  H    4.550659   3.279477   4.748386   2.047842   0.000000
    11  O    1.274598   4.782299   3.911641   4.986499   4.751696
    12  O    1.263626   4.194007   2.476296   4.998389   5.638384
    13  H    4.563881   0.989771   2.398003   2.073517   4.103177
    14  H    5.257398   2.071897   4.141589   0.994981   2.348938
    15  H    1.872885   5.243982   4.424403   5.381322   5.008013
                   11         12         13         14         15
    11  O    0.000000
    12  O    2.232908   0.000000
    13  H    5.652309   4.779447   0.000000
    14  H    5.957225   5.975025   2.392834   0.000000
    15  H    0.896804   2.706169   6.118619   6.333791   0.000000
 Stoichiometry    C7H6O2
 Framework group  C1[X(C7H6O2)]
 Deg. of freedom    39
 Full point group                 C1      NOp   1
 Largest Abelian subgroup         C1      NOp   1
 Largest concise Abelian subgroup C1      NOp   1
                         Standard orientation:                         
 ---------------------------------------------------------------------
 Center     Atomic      Atomic             Coordinates (Angstroms)
 Number     Number       Type             X           Y           Z
 ---------------------------------------------------------------------
      1          6           0       -0.230261    0.034627   -0.008554
      2          6           0        0.431073   -1.188101   -0.019677
      3          6           0        0.501116    1.218878    0.003668
      4          6           0        1.817207   -1.223977   -0.003698
      5          1           0       -0.090389   -2.026564   -0.029723
      6          6           0       -1.713945    0.074420   -0.022891
      7          6           0        1.901278    1.170563    0.010257
      8          1           0        0.019495    2.084025   -0.005766
      9          6           0        2.546595   -0.053797    0.013232
     10          1           0        2.291342   -2.085612   -0.001978
     11          8           0       -2.341962   -1.033718   -0.070055
     12          8           0       -2.292637    1.197451    0.002964
     13          1           0        2.416172    2.015500    0.034967
     14          1           0        3.540611   -0.096438    0.003226
     15          1           0       -2.618822   -1.396453    0.701973
 ---------------------------------------------------------------------
 Rotational constants (GHZ):           3.9232488           1.2482528           0.9490081
 Leave Link  202 at Sun Nov 20 17:25:38 2022, MaxMem= 16106127360 cpu:               0.4 elap:               0.0
 (Enter /opt/ap/G16/B01/g16/l301.exe)
 Standard basis: 6-311++G(d,p) (5D, 7F)
 Ernie: Thresh=  0.10000D-02 Tol=  0.10000D-05 Strict=F.
 There are   249 symmetry adapted cartesian basis functions of A   symmetry.
 There are   240 symmetry adapted basis functions of A   symmetry.
   240 basis functions,   378 primitive gaussians,   249 cartesian basis functions
    32 alpha electrons       32 beta electrons
       nuclear repulsion energy       409.8834684495 Hartrees.
 IExCor= 4639 DFT=T Ex+Corr=wB97XD ExCW=0 ScaHFX=  1.000000
 ScaDFX=  1.000000  1.000000  1.000000  1.000000 ScalE2=  1.000000  1.000000
 IRadAn=      5 IRanWt=     -1 IRanGd=            0 ICorTp=0 IEmpDi=121
 HFx  wShort=  0.000000 wLong=  0.200000 cFull=  0.222036 cShort=  0.000000 cLong=  0.777964
 DFx  wShort=  0.000000 wLong=  0.200000 cFull=  0.000000 cShort=  0.000000 cLong=  1.000000
 NAtoms=   15 NActive=   15 NUniq=   15 SFac= 1.00D+00 NAtFMM=   60 NAOKFM=F Big=F
 Integral buffers will be    131072 words long.
 Raffenetti 2 integral format.
 Two-electron integral symmetry is turned on.
 R6Disp:  Grimme-D2 Dispersion energy=       -0.0065755498 Hartrees.
 Nuclear repulsion after empirical dispersion term =      409.8768928998 Hartrees.
 Leave Link  301 at Sun Nov 20 17:25:38 2022, MaxMem= 16106127360 cpu:               1.5 elap:               0.1
 (Enter /opt/ap/G16/B01/g16/l302.exe)
 NPDir=0 NMtPBC=     1 NCelOv=     1 NCel=       1 NClECP=     1 NCelD=      1
         NCelK=      1 NCelE2=     1 NClLst=     1 CellRange=     0.0.
 One-electron integrals computed using PRISM.
 One-electron integral symmetry used in STVInt
 NBasis=   240 RedAO= T EigKep=  1.19D-06  NBF=   240
 NBsUse=   240 1.00D-06 EigRej= -1.00D+00 NBFU=   240
 Precomputing XC quadrature grid using
 IXCGrd= 4 IRadAn=           5 IRanWt=          -1 IRanGd=           0 AccXCQ= 0.00D+00.
 Generated NRdTot=       0 NPtTot=           0 NUsed=           0 NTot=          32
 NSgBfM=   249   249   249   249   249 MxSgAt=    15 MxSgA2=    15.
 Leave Link  302 at Sun Nov 20 17:25:38 2022, MaxMem= 16106127360 cpu:               6.5 elap:               0.2
 (Enter /opt/ap/G16/B01/g16/l303.exe)
 DipDrv:  MaxL=1.
 Leave Link  303 at Sun Nov 20 17:25:38 2022, MaxMem= 16106127360 cpu:               1.2 elap:               0.1
 (Enter /opt/ap/G16/B01/g16/l401.exe)
 ExpMin= 3.60D-02 ExpMax= 8.59D+03 ExpMxC= 1.30D+03 IAcc=3 IRadAn=         5 AccDes= 0.00D+00
 Harris functional with IExCor= 4639 and IRadAn=       5 diagonalized for initial guess.
 HarFok:  IExCor= 4639 AccDes= 0.00D+00 IRadAn=         5 IDoV= 1 UseB2=F ITyADJ=14
 ICtDFT=  3500011 ScaDFX=  1.000000  1.000000  1.000000  1.000000
 FoFCou: FMM=F IPFlag=           0 FMFlag=      100000 FMFlg1=           0
         NFxFlg=           0 DoJE=T BraDBF=F KetDBF=T FulRan=T
         wScrn=  0.000000 ICntrl=       500 IOpCl=  0 I1Cent=   200000004 NGrid=           0
         NMat0=    1 NMatS0=      1 NMatT0=    0 NMatD0=    1 NMtDS0=    0 NMtDT0=    0
 Petite list used in FoFCou.
 Harris En= -403.238090735605    
 JPrj=0 DoOrth=F DoCkMO=F.
 Leave Link  401 at Sun Nov 20 17:25:39 2022, MaxMem= 16106127360 cpu:              14.0 elap:               0.5
 (Enter /opt/ap/G16/B01/g16/l502.exe)
 Integral symmetry usage will be decided dynamically.
 Closed shell SCF:
 Using DIIS extrapolation, IDIIS=  1040.
 NGot= 16106127360 LenX= 16105992971 LenY= 16105930529
 Requested convergence on RMS density matrix=1.00D-08 within 512 cycles.
 Requested convergence on MAX density matrix=1.00D-06.
 Requested convergence on             energy=1.00D-06.
 No special actions if energy rises.
 Fock matrices will be formed incrementally for  20 cycles.

 Cycle   1  Pass 1  IDiag  1:
 FoFJK:  IHMeth= 1 ICntrl=       0 DoSepK=T KAlg= 0 I1Cent=           0 FoldK=F
 IRaf=         1 NMat=       1 IRICut=       1 DoRegI=T DoRafI=F ISym2E= 0 IDoP0=0 IntGTp=1.
 FoFCou: FMM=F IPFlag=           0 FMFlag=      100000 FMFlg1=           0
         NFxFlg=           0 DoJE=T BraDBF=F KetDBF=F FulRan=T
         wScrn=  0.000000 ICntrl=       500 IOpCl=  0 I1Cent=           0 NGrid=           0
         NMat0=    1 NMatS0=      1 NMatT0=    0 NMatD0=    1 NMtDS0=    0 NMtDT0=    0
 Symmetry not used in FoFCou.
 E= -420.615722693106    
 DIIS: error= 5.65D-02 at cycle   1 NSaved=   1.
 NSaved= 1 IEnMin= 1 EnMin= -420.615722693106     IErMin= 1 ErrMin= 5.65D-02
 ErrMax= 5.65D-02  0.00D+00 EMaxC= 1.00D-01 BMatC= 8.57D-01 BMatP= 8.57D-01
 IDIUse=3 WtCom= 4.35D-01 WtEn= 5.65D-01
 Coeff-Com:  0.100D+01
 Coeff-En:   0.100D+01
 Coeff:      0.100D+01
 Gap=     0.423 Goal=   None    Shift=    0.000
 GapD=    0.423 DampG=2.000 DampE=0.500 DampFc=1.0000 IDamp=-1.
 RMSDP=3.10D-02 MaxDP=2.05D+00              OVMax= 1.06D-01

 Cycle   2  Pass 1  IDiag  1:
 RMSU=  1.46D-02    CP:  6.52D-01
 E= -420.689863465041     Delta-E=       -0.074140771935 Rises=F Damp=F
 DIIS: error= 9.81D-03 at cycle   2 NSaved=   2.
 NSaved= 2 IEnMin= 2 EnMin= -420.689863465041     IErMin= 2 ErrMin= 9.81D-03
 ErrMax= 9.81D-03  0.00D+00 EMaxC= 1.00D-01 BMatC= 4.58D-02 BMatP= 8.57D-01
 IDIUse=3 WtCom= 9.02D-01 WtEn= 9.81D-02
 Coeff-Com:  0.122D+00 0.878D+00
 Coeff-En:   0.184D-01 0.982D+00
 Coeff:      0.112D+00 0.888D+00
 Gap=     0.421 Goal=   None    Shift=    0.000
 RMSDP=8.28D-03 MaxDP=5.69D-01 DE=-7.41D-02 OVMax= 7.96D-02

 Cycle   3  Pass 1  IDiag  1:
 RMSU=  5.97D-03    CP:  6.05D-01  6.98D-01
 E= -420.707213228322     Delta-E=       -0.017349763281 Rises=F Damp=F
 DIIS: error= 8.22D-03 at cycle   3 NSaved=   3.
 NSaved= 3 IEnMin= 3 EnMin= -420.707213228322     IErMin= 3 ErrMin= 8.22D-03
 ErrMax= 8.22D-03  0.00D+00 EMaxC= 1.00D-01 BMatC= 2.33D-02 BMatP= 4.58D-02
 IDIUse=3 WtCom= 9.18D-01 WtEn= 8.22D-02
 Coeff-Com:  0.230D-01 0.425D+00 0.552D+00
 Coeff-En:   0.000D+00 0.335D+00 0.665D+00
 Coeff:      0.211D-01 0.417D+00 0.561D+00
 Gap=     0.360 Goal=   None    Shift=    0.000
 RMSDP=3.49D-03 MaxDP=2.48D-01 DE=-1.73D-02 OVMax= 3.29D-02

 Cycle   4  Pass 1  IDiag  1:
 RMSU=  1.28D-03    CP:  5.99D-01  8.62D-01  6.41D-01
 E= -420.726464526054     Delta-E=       -0.019251297732 Rises=F Damp=F
 DIIS: error= 1.33D-03 at cycle   4 NSaved=   4.
 NSaved= 4 IEnMin= 4 EnMin= -420.726464526054     IErMin= 4 ErrMin= 1.33D-03
 ErrMax= 1.33D-03  0.00D+00 EMaxC= 1.00D-01 BMatC= 6.88D-04 BMatP= 2.33D-02
 IDIUse=3 WtCom= 9.87D-01 WtEn= 1.33D-02
 Coeff-Com:  0.927D-02 0.201D+00 0.288D+00 0.501D+00
 Coeff-En:   0.000D+00 0.000D+00 0.000D+00 0.100D+01
 Coeff:      0.915D-02 0.198D+00 0.285D+00 0.508D+00
 Gap=     0.341 Goal=   None    Shift=    0.000
 RMSDP=7.39D-04 MaxDP=4.91D-02 DE=-1.93D-02 OVMax= 7.69D-03

 Cycle   5  Pass 1  IDiag  1:
 RMSU=  5.46D-04    CP:  5.94D-01  8.49D-01  6.69D-01  8.58D-01
 E= -420.726940619023     Delta-E=       -0.000476092969 Rises=F Damp=F
 DIIS: error= 4.33D-04 at cycle   5 NSaved=   5.
 NSaved= 5 IEnMin= 5 EnMin= -420.726940619023     IErMin= 5 ErrMin= 4.33D-04
 ErrMax= 4.33D-04  0.00D+00 EMaxC= 1.00D-01 BMatC= 5.25D-05 BMatP= 6.88D-04
 IDIUse=3 WtCom= 9.96D-01 WtEn= 4.33D-03
 Coeff-Com:  0.716D-04 0.964D-02 0.239D-01 0.215D+00 0.751D+00
 Coeff-En:   0.000D+00 0.000D+00 0.000D+00 0.000D+00 0.100D+01
 Coeff:      0.713D-04 0.960D-02 0.238D-01 0.214D+00 0.752D+00
 Gap=     0.342 Goal=   None    Shift=    0.000
 RMSDP=2.23D-04 MaxDP=1.23D-02 DE=-4.76D-04 OVMax= 2.48D-03

 Cycle   6  Pass 1  IDiag  1:
 RMSU=  1.23D-04    CP:  5.92D-01  8.51D-01  6.86D-01  8.80D-01  1.05D+00
 E= -420.726981104247     Delta-E=       -0.000040485224 Rises=F Damp=F
 DIIS: error= 1.68D-04 at cycle   6 NSaved=   6.
 NSaved= 6 IEnMin= 6 EnMin= -420.726981104247     IErMin= 6 ErrMin= 1.68D-04
 ErrMax= 1.68D-04  0.00D+00 EMaxC= 1.00D-01 BMatC= 7.49D-06 BMatP= 5.25D-05
 IDIUse=3 WtCom= 9.98D-01 WtEn= 1.68D-03
 Coeff-Com: -0.102D-02-0.182D-01-0.210D-01 0.383D-01 0.353D+00 0.649D+00
 Coeff-En:   0.000D+00 0.000D+00 0.000D+00 0.000D+00 0.000D+00 0.100D+01
 Coeff:     -0.102D-02-0.181D-01-0.209D-01 0.382D-01 0.353D+00 0.649D+00
 Gap=     0.342 Goal=   None    Shift=    0.000
 RMSDP=1.54D-04 MaxDP=1.19D-02 DE=-4.05D-05 OVMax= 7.83D-04

 Cycle   7  Pass 1  IDiag  1:
 RMSU=  4.12D-05    CP:  5.91D-01  8.49D-01  6.96D-01  8.98D-01  1.15D+00
                    CP:  1.04D+00
 E= -420.726988036959     Delta-E=       -0.000006932713 Rises=F Damp=F
 DIIS: error= 7.46D-05 at cycle   7 NSaved=   7.
 NSaved= 7 IEnMin= 7 EnMin= -420.726988036959     IErMin= 7 ErrMin= 7.46D-05
 ErrMax= 7.46D-05  0.00D+00 EMaxC= 1.00D-01 BMatC= 3.08D-07 BMatP= 7.49D-06
 IDIUse=1 WtCom= 1.00D+00 WtEn= 0.00D+00
 Coeff-Com: -0.286D-03-0.643D-02-0.857D-02-0.147D-01 0.240D-01 0.158D+00
 Coeff-Com:  0.848D+00
 Coeff:     -0.286D-03-0.643D-02-0.857D-02-0.147D-01 0.240D-01 0.158D+00
 Coeff:      0.848D+00
 Gap=     0.342 Goal=   None    Shift=    0.000
 RMSDP=3.50D-05 MaxDP=1.59D-03 DE=-6.93D-06 OVMax= 3.75D-04

 Cycle   8  Pass 1  IDiag  1:
 RMSU=  1.11D-05    CP:  5.91D-01  8.49D-01  6.97D-01  9.03D-01  1.20D+00
                    CP:  1.09D+00  1.11D+00
 E= -420.726988603457     Delta-E=       -0.000000566497 Rises=F Damp=F
 DIIS: error= 1.66D-05 at cycle   8 NSaved=   8.
 NSaved= 8 IEnMin= 8 EnMin= -420.726988603457     IErMin= 8 ErrMin= 1.66D-05
 ErrMax= 1.66D-05  0.00D+00 EMaxC= 1.00D-01 BMatC= 4.89D-08 BMatP= 3.08D-07
 IDIUse=1 WtCom= 1.00D+00 WtEn= 0.00D+00
 Coeff-Com:  0.122D-04-0.164D-03-0.580D-03-0.102D-01-0.320D-01-0.265D-01
 Coeff-Com:  0.277D+00 0.793D+00
 Coeff:      0.122D-04-0.164D-03-0.580D-03-0.102D-01-0.320D-01-0.265D-01
 Coeff:      0.277D+00 0.793D+00
 Gap=     0.342 Goal=   None    Shift=    0.000
 RMSDP=1.21D-05 MaxDP=6.60D-04 DE=-5.66D-07 OVMax= 1.33D-04

 Cycle   9  Pass 1  IDiag  1:
 RMSU=  5.89D-06    CP:  5.91D-01  8.49D-01  6.98D-01  9.03D-01  1.22D+00
                    CP:  1.11D+00  1.16D+00  1.11D+00
 E= -420.726988682798     Delta-E=       -0.000000079342 Rises=F Damp=F
 DIIS: error= 9.43D-06 at cycle   9 NSaved=   9.
 NSaved= 9 IEnMin= 9 EnMin= -420.726988682798     IErMin= 9 ErrMin= 9.43D-06
 ErrMax= 9.43D-06  0.00D+00 EMaxC= 1.00D-01 BMatC= 6.54D-09 BMatP= 4.89D-08
 IDIUse=1 WtCom= 1.00D+00 WtEn= 0.00D+00
 Coeff-Com:  0.416D-04 0.796D-03 0.900D-03-0.181D-02-0.129D-01-0.314D-01
 Coeff-Com: -0.984D-02 0.278D+00 0.777D+00
 Coeff:      0.416D-04 0.796D-03 0.900D-03-0.181D-02-0.129D-01-0.314D-01
 Coeff:     -0.984D-02 0.278D+00 0.777D+00
 Gap=     0.342 Goal=   None    Shift=    0.000
 RMSDP=4.20D-06 MaxDP=2.09D-04 DE=-7.93D-08 OVMax= 5.35D-05

 Cycle  10  Pass 1  IDiag  1:
 RMSU=  1.89D-06    CP:  5.91D-01  8.49D-01  6.98D-01  9.01D-01  1.22D+00
                    CP:  1.11D+00  1.17D+00  1.17D+00  1.20D+00
 E= -420.726988692090     Delta-E=       -0.000000009292 Rises=F Damp=F
 DIIS: error= 1.22D-06 at cycle  10 NSaved=  10.
 NSaved=10 IEnMin=10 EnMin= -420.726988692090     IErMin=10 ErrMin= 1.22D-06
 ErrMax= 1.22D-06  0.00D+00 EMaxC= 1.00D-01 BMatC= 7.21D-10 BMatP= 6.54D-09
 IDIUse=1 WtCom= 1.00D+00 WtEn= 0.00D+00
 Coeff-Com:  0.102D-04 0.214D-03 0.257D-03 0.386D-03 0.191D-03-0.703D-02
 Coeff-Com: -0.286D-01-0.334D-02 0.238D+00 0.800D+00
 Coeff:      0.102D-04 0.214D-03 0.257D-03 0.386D-03 0.191D-03-0.703D-02
 Coeff:     -0.286D-01-0.334D-02 0.238D+00 0.800D+00
 Gap=     0.342 Goal=   None    Shift=    0.000
 RMSDP=1.64D-06 MaxDP=1.12D-04 DE=-9.29D-09 OVMax= 1.16D-05

 Cycle  11  Pass 1  IDiag  1:
 RMSU=  5.03D-07    CP:  5.91D-01  8.49D-01  6.98D-01  9.01D-01  1.22D+00
                    CP:  1.11D+00  1.17D+00  1.20D+00  1.31D+00  1.27D+00
 E= -420.726988693070     Delta-E=       -0.000000000980 Rises=F Damp=F
 DIIS: error= 5.36D-07 at cycle  11 NSaved=  11.
 NSaved=11 IEnMin=11 EnMin= -420.726988693070     IErMin=11 ErrMin= 5.36D-07
 ErrMax= 5.36D-07  0.00D+00 EMaxC= 1.00D-01 BMatC= 8.56D-11 BMatP= 7.21D-10
 IDIUse=1 WtCom= 1.00D+00 WtEn= 0.00D+00
 Coeff-Com: -0.175D-05-0.169D-04-0.137D-04 0.379D-03 0.186D-02 0.108D-02
 Coeff-Com: -0.762D-02-0.397D-01-0.255D-01 0.248D+00 0.821D+00
 Coeff:     -0.175D-05-0.169D-04-0.137D-04 0.379D-03 0.186D-02 0.108D-02
 Coeff:     -0.762D-02-0.397D-01-0.255D-01 0.248D+00 0.821D+00
 Gap=     0.342 Goal=   None    Shift=    0.000
 RMSDP=6.69D-07 MaxDP=4.08D-05 DE=-9.80D-10 OVMax= 5.92D-06

 Cycle  12  Pass 1  IDiag  1:
 RMSU=  1.68D-07    CP:  5.91D-01  8.49D-01  6.98D-01  9.01D-01  1.22D+00
                    CP:  1.11D+00  1.17D+00  1.20D+00  1.35D+00  1.43D+00
                    CP:  1.29D+00
 E= -420.726988693190     Delta-E=       -0.000000000120 Rises=F Damp=F
 DIIS: error= 2.34D-07 at cycle  12 NSaved=  12.
 NSaved=12 IEnMin=12 EnMin= -420.726988693190     IErMin=12 ErrMin= 2.34D-07
 ErrMax= 2.34D-07  0.00D+00 EMaxC= 1.00D-01 BMatC= 7.09D-12 BMatP= 8.56D-11
 IDIUse=1 WtCom= 1.00D+00 WtEn= 0.00D+00
 Coeff-Com: -0.116D-05-0.182D-04-0.202D-04 0.903D-04 0.556D-03 0.620D-03
 Coeff-Com:  0.129D-03-0.113D-01-0.232D-01 0.172D-01 0.249D+00 0.767D+00
 Coeff:     -0.116D-05-0.182D-04-0.202D-04 0.903D-04 0.556D-03 0.620D-03
 Coeff:      0.129D-03-0.113D-01-0.232D-01 0.172D-01 0.249D+00 0.767D+00
 Gap=     0.342 Goal=   None    Shift=    0.000
 RMSDP=1.20D-07 MaxDP=5.42D-06 DE=-1.20D-10 OVMax= 1.59D-06

 Cycle  13  Pass 1  IDiag  1:
 RMSU=  4.68D-08    CP:  5.91D-01  8.49D-01  6.98D-01  9.01D-01  1.22D+00
                    CP:  1.11D+00  1.16D+00  1.19D+00  1.36D+00  1.45D+00
                    CP:  1.36D+00  1.12D+00
 E= -420.726988693204     Delta-E=       -0.000000000014 Rises=F Damp=F
 DIIS: error= 8.55D-08 at cycle  13 NSaved=  13.
 NSaved=13 IEnMin=13 EnMin= -420.726988693204     IErMin=13 ErrMin= 8.55D-08
 ErrMax= 8.55D-08  0.00D+00 EMaxC= 1.00D-01 BMatC= 8.06D-13 BMatP= 7.09D-12
 IDIUse=1 WtCom= 1.00D+00 WtEn= 0.00D+00
 Coeff-Com:  0.118D-08-0.337D-05-0.571D-05-0.413D-04-0.164D-03-0.868D-04
 Coeff-Com:  0.135D-02 0.371D-02-0.116D-02-0.366D-01-0.798D-01 0.136D+00
 Coeff-Com:  0.977D+00
 Coeff:      0.118D-08-0.337D-05-0.571D-05-0.413D-04-0.164D-03-0.868D-04
 Coeff:      0.135D-02 0.371D-02-0.116D-02-0.366D-01-0.798D-01 0.136D+00
 Coeff:      0.977D+00
 Gap=     0.342 Goal=   None    Shift=    0.000
 RMSDP=7.03D-08 MaxDP=4.66D-06 DE=-1.38D-11 OVMax= 1.07D-06

 Cycle  14  Pass 1  IDiag  1:
 RMSU=  1.86D-08    CP:  5.91D-01  8.49D-01  6.98D-01  9.01D-01  1.22D+00
                    CP:  1.11D+00  1.16D+00  1.19D+00  1.36D+00  1.47D+00
                    CP:  1.43D+00  1.26D+00  1.18D+00
 E= -420.726988693206     Delta-E=       -0.000000000002 Rises=F Damp=F
 DIIS: error= 5.40D-08 at cycle  14 NSaved=  14.
 NSaved=14 IEnMin=14 EnMin= -420.726988693206     IErMin=14 ErrMin= 5.40D-08
 ErrMax= 5.40D-08  0.00D+00 EMaxC= 1.00D-01 BMatC= 9.09D-14 BMatP= 8.06D-13
 IDIUse=1 WtCom= 1.00D+00 WtEn= 0.00D+00
 Coeff-Com:  0.912D-07 0.134D-05 0.126D-05-0.124D-04-0.693D-04-0.664D-04
 Coeff-Com:  0.146D-03 0.146D-02 0.190D-02-0.639D-02-0.293D-01-0.620D-01
 Coeff-Com:  0.104D+00 0.990D+00
 Coeff:      0.912D-07 0.134D-05 0.126D-05-0.124D-04-0.693D-04-0.664D-04
 Coeff:      0.146D-03 0.146D-02 0.190D-02-0.639D-02-0.293D-01-0.620D-01
 Coeff:      0.104D+00 0.990D+00
 Gap=     0.342 Goal=   None    Shift=    0.000
 RMSDP=1.44D-08 MaxDP=6.69D-07 DE=-1.59D-12 OVMax= 5.04D-07

 Cycle  15  Pass 1  IDiag  1:
 RMSU=  7.26D-09    CP:  5.91D-01  8.49D-01  6.98D-01  9.01D-01  1.22D+00
                    CP:  1.11D+00  1.17D+00  1.19D+00  1.36D+00  1.47D+00
                    CP:  1.44D+00  1.28D+00  1.30D+00  1.24D+00
 E= -420.726988693206     Delta-E=       -0.000000000001 Rises=F Damp=F
 DIIS: error= 2.28D-08 at cycle  15 NSaved=  15.
 NSaved=15 IEnMin=15 EnMin= -420.726988693206     IErMin=15 ErrMin= 2.28D-08
 ErrMax= 2.28D-08  0.00D+00 EMaxC= 1.00D-01 BMatC= 2.92D-14 BMatP= 9.09D-14
 IDIUse=1 WtCom= 1.00D+00 WtEn= 0.00D+00
 Coeff-Com:  0.248D-07 0.110D-05 0.157D-05 0.450D-05 0.112D-04 0.154D-05
 Coeff-Com: -0.234D-03-0.261D-03 0.827D-03 0.545D-02 0.775D-02-0.482D-01
 Coeff-Com: -0.175D+00 0.334D+00 0.876D+00
 Coeff:      0.248D-07 0.110D-05 0.157D-05 0.450D-05 0.112D-04 0.154D-05
 Coeff:     -0.234D-03-0.261D-03 0.827D-03 0.545D-02 0.775D-02-0.482D-01
 Coeff:     -0.175D+00 0.334D+00 0.876D+00
 Gap=     0.342 Goal=   None    Shift=    0.000
 RMSDP=7.14D-09 MaxDP=3.62D-07 DE=-9.09D-13 OVMax= 2.61D-07

 SCF Done:  E(RwB97XD) =  -420.726988693     A.U. after   15 cycles
            NFock= 15  Conv=0.71D-08     -V/T= 2.0014
 KE= 4.201538656182D+02 PE=-1.803239176313D+03 EE= 5.524814291021D+02
 Leave Link  502 at Sun Nov 20 17:25:52 2022, MaxMem= 16106127360 cpu:             410.9 elap:              12.9
 (Enter /opt/ap/G16/B01/g16/l601.exe)
 Copying SCF densities to generalized density rwf, IOpCl= 0 IROHF=0.

 **********************************************************************

            Population analysis using the SCF Density.

 **********************************************************************

 Orbital symmetries:
       Occupied  (A) (A) (A) (A) (A) (A) (A) (A) (A) (A) (A) (A)
                 (A) (A) (A) (A) (A) (A) (A) (A) (A) (A) (A) (A)
                 (A) (A) (A) (A) (A) (A) (A) (A)
       Virtual   (A) (A) (A) (A) (A) (A) (A) (A) (A) (A) (A) (A)
                 (A) (A) (A) (A) (A) (A) (A) (A) (A) (A) (A) (A)
                 (A) (A) (A) (A) (A) (A) (A) (A) (A) (A) (A) (A)
                 (A) (A) (A) (A) (A) (A) (A) (A) (A) (A) (A) (A)
                 (A) (A) (A) (A) (A) (A) (A) (A) (A) (A) (A) (A)
                 (A) (A) (A) (A) (A) (A) (A) (A) (A) (A) (A) (A)
                 (A) (A) (A) (A) (A) (A) (A) (A) (A) (A) (A) (A)
                 (A) (A) (A) (A) (A) (A) (A) (A) (A) (A) (A) (A)
                 (A) (A) (A) (A) (A) (A) (A) (A) (A) (A) (A) (A)
                 (A) (A) (A) (A) (A) (A) (A) (A) (A) (A) (A) (A)
                 (A) (A) (A) (A) (A) (A) (A) (A) (A) (A) (A) (A)
                 (A) (A) (A) (A) (A) (A) (A) (A) (A) (A) (A) (A)
                 (A) (A) (A) (A) (A) (A) (A) (A) (A) (A) (A) (A)
                 (A) (A) (A) (A) (A) (A) (A) (A) (A) (A) (A) (A)
                 (A) (A) (A) (A) (A) (A) (A) (A) (A) (A) (A) (A)
                 (A) (A) (A) (A) (A) (A) (A) (A) (A) (A) (A) (A)
                 (A) (A) (A) (A) (A) (A) (A) (A) (A) (A) (A) (A)
                 (A) (A) (A) (A)
 The electronic state is 1-A.
 Alpha  occ. eigenvalues --  -19.29943 -19.23577 -10.43230 -10.30948 -10.29657
 Alpha  occ. eigenvalues --  -10.29464 -10.29455 -10.29221 -10.29038  -1.24947
 Alpha  occ. eigenvalues --   -1.11025  -0.98269  -0.88716  -0.87269  -0.79557
 Alpha  occ. eigenvalues --   -0.73678  -0.72753  -0.66629  -0.61447  -0.58196
 Alpha  occ. eigenvalues --   -0.56925  -0.56210  -0.53755  -0.53721  -0.48178
 Alpha  occ. eigenvalues --   -0.47241  -0.45358  -0.43325  -0.42383  -0.36285
 Alpha  occ. eigenvalues --   -0.34916  -0.34539
 Alpha virt. eigenvalues --   -0.00336   0.03296   0.03977   0.04400   0.05201
 Alpha virt. eigenvalues --    0.06539   0.07775   0.08739   0.09974   0.10504
 Alpha virt. eigenvalues --    0.11646   0.12889   0.13218   0.13885   0.14351
 Alpha virt. eigenvalues --    0.15898   0.16283   0.16902   0.17180   0.17822
 Alpha virt. eigenvalues --    0.18193   0.18906   0.19765   0.19926   0.20385
 Alpha virt. eigenvalues --    0.21055   0.21375   0.21970   0.22986   0.24157
 Alpha virt. eigenvalues --    0.25195   0.25895   0.26465   0.27380   0.27747
 Alpha virt. eigenvalues --    0.29605   0.29907   0.30512   0.31077   0.32377
 Alpha virt. eigenvalues --    0.32575   0.34418   0.35197   0.35417   0.36188
 Alpha virt. eigenvalues --    0.37200   0.37642   0.38498   0.39588   0.40463
 Alpha virt. eigenvalues --    0.41407   0.41996   0.42721   0.43807   0.46665
 Alpha virt. eigenvalues --    0.47322   0.49652   0.54012   0.54754   0.57913
 Alpha virt. eigenvalues --    0.58990   0.60304   0.61753   0.62843   0.63765
 Alpha virt. eigenvalues --    0.64190   0.64854   0.66111   0.67068   0.69374
 Alpha virt. eigenvalues --    0.70499   0.73817   0.73855   0.74205   0.76228
 Alpha virt. eigenvalues --    0.76889   0.81025   0.82449   0.84005   0.86153
 Alpha virt. eigenvalues --    0.88414   0.90624   0.92533   0.93494   0.94629
 Alpha virt. eigenvalues --    0.95896   0.96391   0.98065   0.99766   1.00372
 Alpha virt. eigenvalues --    1.03331   1.06042   1.07878   1.09842   1.10154
 Alpha virt. eigenvalues --    1.14327   1.14910   1.16389   1.16686   1.18942
 Alpha virt. eigenvalues --    1.21079   1.22236   1.25055   1.28901   1.29981
 Alpha virt. eigenvalues --    1.34860   1.41765   1.44048   1.47662   1.48630
 Alpha virt. eigenvalues --    1.56258   1.59193   1.60253   1.60904   1.62038
 Alpha virt. eigenvalues --    1.63072   1.66683   1.66893   1.70831   1.74016
 Alpha virt. eigenvalues --    1.74857   1.75914   1.82169   1.83946   1.84953
 Alpha virt. eigenvalues --    1.87879   1.88780   1.91432   1.92492   1.99769
 Alpha virt. eigenvalues --    2.00078   2.01481   2.02931   2.04131   2.04636
 Alpha virt. eigenvalues --    2.07902   2.08839   2.16131   2.17745   2.20399
 Alpha virt. eigenvalues --    2.22867   2.25146   2.29524   2.42681   2.46007
 Alpha virt. eigenvalues --    2.51312   2.52227   2.54241   2.58074   2.66043
 Alpha virt. eigenvalues --    2.70024   2.73168   2.76037   2.78011   2.81405
 Alpha virt. eigenvalues --    2.81615   2.83741   2.88151   2.89916   2.90179
 Alpha virt. eigenvalues --    2.90404   2.91609   2.95912   2.99391   2.99732
 Alpha virt. eigenvalues --    3.02431   3.05054   3.06361   3.17401   3.18387
 Alpha virt. eigenvalues --    3.18786   3.21773   3.26949   3.31965   3.41219
 Alpha virt. eigenvalues --    3.44516   3.46715   3.49156   3.53206   3.63649
 Alpha virt. eigenvalues --    3.66327   3.68314   3.73323   3.84379   3.87954
 Alpha virt. eigenvalues --    3.94299   4.18598   4.28682   4.30503   4.36913
 Alpha virt. eigenvalues --    4.40762   4.44894   4.94775   5.15535   5.20814
 Alpha virt. eigenvalues --    5.30108   5.44173   5.81029   6.08353  23.83803
 Alpha virt. eigenvalues --   23.95741  24.14030  24.21129  24.28186  24.30153
 Alpha virt. eigenvalues --   24.41568  50.05182  50.16594
          Condensed to atoms (all electrons):
               1          2          3          4          5          6
     1  C    9.925214  -2.282324  -2.275996   1.580652  -0.088760  -1.559736
     2  C   -2.282324  14.886405  -1.392417  -4.669797   0.620491  -0.295660
     3  C   -2.275996  -1.392417  13.770980  -0.517606  -0.051154  -0.365945
     4  C    1.580652  -4.669797  -0.517606   9.181445  -0.074826  -0.421027
     5  H   -0.088760   0.620491  -0.051154  -0.074826   0.489130  -0.062630
     6  C   -1.559736  -0.295660  -0.365945  -0.421027  -0.062630   7.731068
     7  C    1.095771  -0.628083  -4.105835   0.960773   0.010246   0.128061
     8  H   -0.054670   0.010929   0.548683  -0.003484  -0.000263  -0.039979
     9  C   -1.297044   1.059355   1.239735  -0.690610   0.015950   0.108470
    10  H    0.030014  -0.119238   0.016400   0.440144  -0.009797   0.003362
    11  O   -0.178674  -0.191970   0.012126   0.108376  -0.004459   0.273569
    12  O   -0.185910  -0.047228  -0.105853   0.059037  -0.003709   0.548245
    13  H    0.029547   0.010909  -0.125479   0.001954   0.000583   0.006539
    14  H    0.013550   0.007792   0.008430  -0.050165  -0.000030  -0.006178
    15  H   -0.038149  -0.013202   0.001942  -0.003487  -0.009115   0.050416
               7          8          9         10         11         12
     1  C    1.095771  -0.054670  -1.297044   0.030014  -0.178674  -0.185910
     2  C   -0.628083   0.010929   1.059355  -0.119238  -0.191970  -0.047228
     3  C   -4.105835   0.548683   1.239735   0.016400   0.012126  -0.105853
     4  C    0.960773  -0.003484  -0.690610   0.440144   0.108376   0.059037
     5  H    0.010246  -0.000263   0.015950  -0.009797  -0.004459  -0.003709
     6  C    0.128061  -0.039979   0.108470   0.003362   0.273569   0.548245
     7  C    8.872879  -0.105891  -0.828214  -0.001436   0.061768   0.137566
     8  H   -0.105891   0.429627   0.014217   0.000633  -0.003316  -0.004822
     9  C   -0.828214   0.014217   6.566541  -0.039468  -0.027754  -0.021245
    10  H   -0.001436   0.000633  -0.039468   0.471686   0.002837   0.000573
    11  O    0.061768  -0.003316  -0.027754   0.002837   7.930181  -0.110807
    12  O    0.137566  -0.004822  -0.021245   0.000573  -0.110807   8.016714
    13  H    0.444665  -0.007700  -0.035503  -0.000903   0.001077   0.001970
    14  H   -0.041873   0.000179   0.425337  -0.006862  -0.000473  -0.000340
    15  H    0.004321  -0.000171  -0.002565   0.000269   0.343891   0.003476
              13         14         15
     1  C    0.029547   0.013550  -0.038149
     2  C    0.010909   0.007792  -0.013202
     3  C   -0.125479   0.008430   0.001942
     4  C    0.001954  -0.050165  -0.003487
     5  H    0.000583  -0.000030  -0.009115
     6  C    0.006539  -0.006178   0.050416
     7  C    0.444665  -0.041873   0.004321
     8  H   -0.007700   0.000179  -0.000171
     9  C   -0.035503   0.425337  -0.002565
    10  H   -0.000903  -0.006862   0.000269
    11  O    0.001077  -0.000473   0.343891
    12  O    0.001970  -0.000340   0.003476
    13  H    0.463480  -0.006235   0.000063
    14  H   -0.006235   0.469010  -0.000076
    15  H    0.000063  -0.000076   0.338136
 Mulliken charges:
               1
     1  C    1.286513
     2  C   -0.955963
     3  C   -0.658011
     4  C    0.098620
     5  H    0.168342
     6  C   -0.098574
     7  C   -0.004718
     8  H    0.216027
     9  C   -0.487200
    10  H    0.211785
    11  O   -0.216372
    12  O   -0.287668
    13  H    0.215032
    14  H    0.187935
    15  H    0.324252
 Sum of Mulliken charges =  -0.00000
 Mulliken charges with hydrogens summed into heavy atoms:
               1
     1  C    1.286513
     2  C   -0.787621
     3  C   -0.441985
     4  C    0.310405
     6  C   -0.098574
     7  C    0.210314
     9  C   -0.299265
    11  O    0.107880
    12  O   -0.287668
 Electronic spatial extent (au):  <R**2>=           1153.4545
 Charge=             -0.0000 electrons
 Dipole moment (field-independent basis, Debye):
    X=              2.5569    Y=             -2.6364    Z=              1.4007  Tot=              3.9307
 Quadrupole moment (field-independent basis, Debye-Ang):
   XX=            -50.9575   YY=            -47.9159   ZZ=            -52.7549
   XY=              7.8848   XZ=             -4.1633   YZ=             -2.4140
 Traceless Quadrupole moment (field-independent basis, Debye-Ang):
   XX=             -0.4147   YY=              2.6268   ZZ=             -2.2122
   XY=              7.8848   XZ=             -4.1633   YZ=             -2.4140
 Octapole moment (field-independent basis, Debye-Ang**2):
  XXX=             15.5256  YYY=             -7.4923  ZZZ=              1.2550  XYY=              3.4086
  XXY=            -21.2570  XXZ=             11.6425  XZZ=            -14.5562  YZZ=             -2.0724
  YYZ=              3.6591  XYZ=              6.8721
 Hexadecapole moment (field-independent basis, Debye-Ang**3):
 XXXX=          -1009.7812 YYYY=           -354.3585 ZZZZ=            -58.6484 XXXY=             60.4785
 XXXZ=            -33.2397 YYYX=             24.1263 YYYZ=             -6.0265 ZZZX=             -4.3978
 ZZZY=             -2.5865 XXYY=           -226.9043 XXZZ=           -184.0944 YYZZ=            -76.7697
 XXYZ=            -17.9087 YYXZ=             -9.9110 ZZXY=              6.2266
 N-N= 4.098768928998D+02 E-N=-1.803239176552D+03  KE= 4.201538656182D+02
 No NMR shielding tensors so no spin-rotation constants.
 Leave Link  601 at Sun Nov 20 17:25:52 2022, MaxMem= 16106127360 cpu:              18.2 elap:               0.6
 (Enter /opt/ap/G16/B01/g16/l9999.exe)
 1\1\GINC-N04\SP\RwB97XD\6-311++G(d,p)\C7H6O2\ROOT\20-Nov-2022\0\\#P wB
 97XD/6-311++G(d,p) scf=maxcycle=512\\_conf001.gjf nmol_natom 1_15\\0,1
 \C\C,1,1.39016191\C,1,1.39194539,2,119.895942\C,2,1.38669027,1,119.880
 75721,3,0.70825972,0\H,2,0.98744251,1,119.71654057,3,-179.90726164,0\C
 ,1,1.48428757,2,119.93615286,4,-179.87772406,0\C,3,1.40101108,1,119.72
 36454,2,-0.26266839,0\H,3,0.9902154,1,119.1886159,2,178.85397616,0\C,4
 ,1.37899003,2,120.45785903,1,-0.48041454,0\H,4,0.9834739,2,120.3044270
 6,1,179.36166981,0\O,6,1.27459751,1,118.00615353,2,-1.25976832,0\O,6,1
 .26362572,1,118.77715367,2,179.20603801,0\H,7,0.98977053,3,119.3786157
 8,1,-178.93545741,0\H,9,0.99498061,4,119.46722635,2,-178.58826714,0\H,
 11,0.89680392,6,118.15823763,1,-265.,0\\Version=ES64L-G16RevB.01\State
 =1-A\HF=-420.7269887\RMSD=7.142e-09\Dipole=0.3944787,0.5600017,1.38648
 48\Quadrupole=5.0694567,-1.6029891,-3.4664677,-3.6466778,-4.1255448,0.
 1142919\PG=C01 [X(C7H6O2)]\\@


 IF I HAVE SEEN FARTHER, IT IS BY STANDING ON THE
 SHOULDERS OF GIANTS. -- SIR ISAAC NEWTON
 Job cpu time:       0 days  0 hours  7 minutes 43.3 seconds.
 Elapsed time:       0 days  0 hours  0 minutes 14.7 seconds.
 File lengths (MBytes):  RWF=     35 Int=      0 D2E=      0 Chk=      4 Scr=      1
 Normal termination of Gaussian 16 at Sun Nov 20 17:25:52 2022.
