 Entering Gaussian System, Link 0=g16
 Input=_conf011.gjf
 Output=_conf011.log
 Initial command:
 /opt/ap/G16/B01/g16/l1.exe "/tmp2/scr/Gau-10633.inp" -scrdir="/tmp2/scr/"
 Entering Link 1 = /opt/ap/G16/B01/g16/l1.exe PID=     10634.
  
 Copyright (c) 1988-2017, Gaussian, Inc.  All Rights Reserved.
  
 This is part of the Gaussian(R) 16 program.  It is based on
 the Gaussian(R) 09 system (copyright 2009, Gaussian, Inc.),
 the Gaussian(R) 03 system (copyright 2003, Gaussian, Inc.),
 the Gaussian(R) 98 system (copyright 1998, Gaussian, Inc.),
 the Gaussian(R) 94 system (copyright 1995, Gaussian, Inc.),
 the Gaussian 92(TM) system (copyright 1992, Gaussian, Inc.),
 the Gaussian 90(TM) system (copyright 1990, Gaussian, Inc.),
 the Gaussian 88(TM) system (copyright 1988, Gaussian, Inc.),
 the Gaussian 86(TM) system (copyright 1986, Carnegie Mellon
 University), and the Gaussian 82(TM) system (copyright 1983,
 Carnegie Mellon University). Gaussian is a federally registered
 trademark of Gaussian, Inc.
  
 This software contains proprietary and confidential information,
 including trade secrets, belonging to Gaussian, Inc.
  
 This software is provided under written license and may be
 used, copied, transmitted, or stored only in accord with that
 written license.
  
 The following legend is applicable only to US Government
 contracts under FAR:
  
                    RESTRICTED RIGHTS LEGEND
  
 Use, reproduction and disclosure by the US Government is
 subject to restrictions as set forth in subparagraphs (a)
 and (c) of the Commercial Computer Software - Restricted
 Rights clause in FAR 52.227-19.
  
 Gaussian, Inc.
 340 Quinnipiac St., Bldg. 40, Wallingford CT 06492
  
  
 ---------------------------------------------------------------
 Warning -- This program may not be used in any manner that
 competes with the business of Gaussian, Inc. or will provide
 assistance to any competitor of Gaussian, Inc.  The licensee
 of this program is prohibited from giving any competitor of
 Gaussian, Inc. access to this program.  By using this program,
 the user acknowledges that Gaussian, Inc. is engaged in the
 business of creating and licensing software in the field of
 computational chemistry and represents and warrants to the
 licensee that it is not a competitor of Gaussian, Inc. and that
 it will not use this program in any manner prohibited above.
 ---------------------------------------------------------------
  

 Cite this work as:
 Gaussian 16, Revision B.01,
 M. J. Frisch, G. W. Trucks, H. B. Schlegel, G. E. Scuseria, 
 M. A. Robb, J. R. Cheeseman, G. Scalmani, V. Barone, 
 G. A. Petersson, H. Nakatsuji, X. Li, M. Caricato, A. V. Marenich, 
 J. Bloino, B. G. Janesko, R. Gomperts, B. Mennucci, H. P. Hratchian, 
 J. V. Ortiz, A. F. Izmaylov, J. L. Sonnenberg, D. Williams-Young, 
 F. Ding, F. Lipparini, F. Egidi, J. Goings, B. Peng, A. Petrone, 
 T. Henderson, D. Ranasinghe, V. G. Zakrzewski, J. Gao, N. Rega, 
 G. Zheng, W. Liang, M. Hada, M. Ehara, K. Toyota, R. Fukuda, 
 J. Hasegawa, M. Ishida, T. Nakajima, Y. Honda, O. Kitao, H. Nakai, 
 T. Vreven, K. Throssell, J. A. Montgomery, Jr., J. E. Peralta, 
 F. Ogliaro, M. J. Bearpark, J. J. Heyd, E. N. Brothers, K. N. Kudin, 
 V. N. Staroverov, T. A. Keith, R. Kobayashi, J. Normand, 
 K. Raghavachari, A. P. Rendell, J. C. Burant, S. S. Iyengar, 
 J. Tomasi, M. Cossi, J. M. Millam, M. Klene, C. Adamo, R. Cammi, 
 J. W. Ochterski, R. L. Martin, K. Morokuma, O. Farkas, 
 J. B. Foresman, and D. J. Fox, Gaussian, Inc., Wallingford CT, 2016.
 
 ******************************************
 Gaussian 16:  ES64L-G16RevB.01 20-Dec-2017
                20-Nov-2022 
 ******************************************
 %nprocshared=32
 Will use up to   32 processors via shared memory.
 %mem=120GB
 %chk=_conf011.chk
 ----------------------------------------
 #P wB97XD/6-311++G(d,p) scf=maxcycle=512
 ----------------------------------------
 1/38=1,172=1/1;
 2/12=2,17=6,18=5,40=1/2;
 3/5=4,6=6,7=1111,11=2,25=1,30=1,74=-58/1,2,3;
 4//1;
 5/5=2,7=512,38=5/2;
 6/7=2,8=2,9=2,10=2,28=1/1;
 99/5=1,9=1/99;
 Leave Link    1 at Sun Nov 20 17:26:07 2022, MaxMem= 16106127360 cpu:               2.1 elap:               0.1
 (Enter /opt/ap/G16/B01/g16/l101.exe)
 ----------------------------
 _conf011.gjf nmol_natom 1_15
 ----------------------------
 Symbolic Z-matrix:
 Charge =  0 Multiplicity = 1
 C
 C                    1     1.39016 
 C                    1     1.39195  2     119.89594 
 C                    2     1.38669  1     119.88076  3     0.70826  0
 H                    2     0.98744  1     119.71654  3    -179.90726  0
 C                    1     1.48429  2     119.93615  4    -179.87772  0
 C                    3     1.40101  1     119.72365  2    -0.26267  0
 H                    3     0.99022  1     119.18862  2     178.85398  0
 C                    4     1.37899  2     120.45786  1    -0.48041  0
 H                    4     0.98347  2     120.30443  1     179.36167  0
 O                    6     1.2746   1     118.00615  2    -1.25977  0
 O                    6     1.26363  1     118.77715  2     179.20604  0
 H                    7     0.98977  3     119.37862  1    -178.93546  0
 H                    9     0.99498  4     119.46723  2    -178.58827  0
 H                    11    0.8968   6     118.15824  1    -215.     0
 
 ITRead=  0  0  0  0  0  0  0  0  0  0  0  0  0  0  0
 MicOpt= -1 -1 -1 -1 -1 -1 -1 -1 -1 -1 -1 -1 -1 -1 -1
 NAtoms=     15 NQM=       15 NQMF=       0 NMMI=      0 NMMIF=      0
                NMic=       0 NMicF=      0.
                    Isotopes and Nuclear Properties:
 (Nuclear quadrupole moments (NQMom) in fm**2, nuclear magnetic moments (NMagM)
  in nuclear magnetons)

  Atom         1           2           3           4           5           6           7           8           9          10
 IAtWgt=          12          12          12          12           1          12          12           1          12           1
 AtmWgt=  12.0000000  12.0000000  12.0000000  12.0000000   1.0078250  12.0000000  12.0000000   1.0078250  12.0000000   1.0078250
 NucSpn=           0           0           0           0           1           0           0           1           0           1
 AtZEff=  -0.0000000  -0.0000000  -0.0000000  -0.0000000  -0.0000000  -0.0000000  -0.0000000  -0.0000000  -0.0000000  -0.0000000
 NQMom=    0.0000000   0.0000000   0.0000000   0.0000000   0.0000000   0.0000000   0.0000000   0.0000000   0.0000000   0.0000000
 NMagM=    0.0000000   0.0000000   0.0000000   0.0000000   2.7928460   0.0000000   0.0000000   2.7928460   0.0000000   2.7928460
 AtZNuc=   6.0000000   6.0000000   6.0000000   6.0000000   1.0000000   6.0000000   6.0000000   1.0000000   6.0000000   1.0000000

  Atom        11          12          13          14          15
 IAtWgt=          16          16           1           1           1
 AtmWgt=  15.9949146  15.9949146   1.0078250   1.0078250   1.0078250
 NucSpn=           0           0           1           1           1
 AtZEff=  -0.0000000  -0.0000000  -0.0000000  -0.0000000  -0.0000000
 NQMom=    0.0000000   0.0000000   0.0000000   0.0000000   0.0000000
 NMagM=    0.0000000   0.0000000   2.7928460   2.7928460   2.7928460
 AtZNuc=   8.0000000   8.0000000   1.0000000   1.0000000   1.0000000
 Leave Link  101 at Sun Nov 20 17:26:07 2022, MaxMem= 16106127360 cpu:               5.6 elap:               0.2
 (Enter /opt/ap/G16/B01/g16/l202.exe)
                          Input orientation:                          
 ---------------------------------------------------------------------
 Center     Atomic      Atomic             Coordinates (Angstroms)
 Number     Number       Type             X           Y           Z
 ---------------------------------------------------------------------
      1          6           0        0.000000    0.000000    0.000000
      2          6           0        0.000000    0.000000    1.390162
      3          6           0        1.206722    0.000000   -0.693782
      4          6           0        1.202258    0.014862    2.081006
      5          1           0       -0.857581   -0.001388    1.879646
      6          6           0       -1.286190   -0.013155   -0.740711
      7          6           0        2.415349    0.005578    0.014752
      8          1           0        1.194584   -0.017290   -1.683772
      9          6           0        2.400563    0.019708    1.398617
     10          1           0        1.209438    0.024411    3.064408
     11          8           0       -2.365984   -0.048941   -0.064425
     12          8           0       -1.260842    0.002453   -2.003986
     13          1           0        3.270315    0.021574   -0.483669
     14          1           0        3.254554    0.009066    1.909081
     15          1           0       -3.077979    0.395669   -0.380085
 ---------------------------------------------------------------------
                    Distance matrix (angstroms):
                    1          2          3          4          5
     1  C    0.000000
     2  C    1.390162   0.000000
     3  C    1.391945   2.408112   0.000000
     4  C    2.403379   1.386690   2.774832   0.000000
     5  H    2.066039   0.987443   3.299073   2.069721   0.000000
     6  C    1.484288   2.488991   2.493388   3.762345   2.655206
     7  C    2.415401   2.779513   1.401011   2.396056   3.766955
     8  H    2.064563   3.297939   0.990215   3.764924   4.112127
     9  C    2.778349   2.400659   2.409104   1.378990   3.293530
    10  H    3.294530   2.065535   3.758270   0.983474   2.382624
    11  O    2.367367   2.777786   3.628045   4.164047   2.461088
    12  O    2.367633   3.620769   2.793834   4.770133   3.904515
    13  H    3.305958   3.769173   2.074374   3.294611   4.756607
    14  H    3.773167   3.295676   3.311886   2.059493   4.112253
    15  H    3.126496   3.572714   4.314351   4.952011   3.192837
                    6          7          8          9         10
     6  C    0.000000
     7  C    3.777892   0.000000
     8  H    2.653982   2.091836   0.000000
     9  C    4.262622   1.384016   3.310118   0.000000
    10  H    4.550659   3.279477   4.748386   2.047842   0.000000
    11  O    1.274598   4.782299   3.911641   4.986499   4.751696
    12  O    1.263626   4.194007   2.476296   4.998389   5.638384
    13  H    4.563881   0.989771   2.398003   2.073517   4.103177
    14  H    5.257398   2.071897   4.141589   0.994981   2.348938
    15  H    1.872885   5.521298   4.486083   5.772309   5.512197
                   11         12         13         14         15
    11  O    0.000000
    12  O    2.232908   0.000000
    13  H    5.652309   4.779447   0.000000
    14  H    5.957225   5.975025   2.392834   0.000000
    15  H    0.896804   2.468535   6.360151   6.744680   0.000000
 Stoichiometry    C7H6O2
 Framework group  C1[X(C7H6O2)]
 Deg. of freedom    39
 Full point group                 C1      NOp   1
 Largest Abelian subgroup         C1      NOp   1
 Largest concise Abelian subgroup C1      NOp   1
                         Standard orientation:                         
 ---------------------------------------------------------------------
 Center     Atomic      Atomic             Coordinates (Angstroms)
 Number     Number       Type             X           Y           Z
 ---------------------------------------------------------------------
      1          6           0       -0.222502    0.029618   -0.002971
      2          6           0        0.440660   -1.192165   -0.006474
      3          6           0        0.507099    1.215026   -0.002329
      4          6           0        1.826890   -1.225831    0.005544
      5          1           0       -0.079550   -2.031463   -0.008309
      6          6           0       -1.706283    0.067068   -0.013079
      7          6           0        1.907347    1.168868    0.000354
      8          1           0        0.024132    2.079347   -0.017113
      9          6           0        2.554539   -0.054460    0.011010
     10          1           0        2.302341   -2.086712    0.012607
     11          8           0       -2.332748   -1.042350   -0.049578
     12          8           0       -2.286606    1.189397    0.005689
     13          1           0        2.421024    2.014746    0.016822
     14          1           0        3.548583   -0.095685   -0.001703
     15          1           0       -3.108196   -1.105366    0.396479
 ---------------------------------------------------------------------
 Rotational constants (GHZ):           3.9579159           1.2406623           0.9452709
 Leave Link  202 at Sun Nov 20 17:26:07 2022, MaxMem= 16106127360 cpu:               0.2 elap:               0.0
 (Enter /opt/ap/G16/B01/g16/l301.exe)
 Standard basis: 6-311++G(d,p) (5D, 7F)
 Ernie: Thresh=  0.10000D-02 Tol=  0.10000D-05 Strict=F.
 There are   249 symmetry adapted cartesian basis functions of A   symmetry.
 There are   240 symmetry adapted basis functions of A   symmetry.
   240 basis functions,   378 primitive gaussians,   249 cartesian basis functions
    32 alpha electrons       32 beta electrons
       nuclear repulsion energy       409.6048319382 Hartrees.
 IExCor= 4639 DFT=T Ex+Corr=wB97XD ExCW=0 ScaHFX=  1.000000
 ScaDFX=  1.000000  1.000000  1.000000  1.000000 ScalE2=  1.000000  1.000000
 IRadAn=      5 IRanWt=     -1 IRanGd=            0 ICorTp=0 IEmpDi=121
 HFx  wShort=  0.000000 wLong=  0.200000 cFull=  0.222036 cShort=  0.000000 cLong=  0.777964
 DFx  wShort=  0.000000 wLong=  0.200000 cFull=  0.000000 cShort=  0.000000 cLong=  1.000000
 NAtoms=   15 NActive=   15 NUniq=   15 SFac= 1.00D+00 NAtFMM=   60 NAOKFM=F Big=F
 Integral buffers will be    131072 words long.
 Raffenetti 2 integral format.
 Two-electron integral symmetry is turned on.
 R6Disp:  Grimme-D2 Dispersion energy=       -0.0063709302 Hartrees.
 Nuclear repulsion after empirical dispersion term =      409.5984610080 Hartrees.
 Leave Link  301 at Sun Nov 20 17:26:07 2022, MaxMem= 16106127360 cpu:               1.2 elap:               0.0
 (Enter /opt/ap/G16/B01/g16/l302.exe)
 NPDir=0 NMtPBC=     1 NCelOv=     1 NCel=       1 NClECP=     1 NCelD=      1
         NCelK=      1 NCelE2=     1 NClLst=     1 CellRange=     0.0.
 One-electron integrals computed using PRISM.
 One-electron integral symmetry used in STVInt
 NBasis=   240 RedAO= T EigKep=  1.22D-06  NBF=   240
 NBsUse=   240 1.00D-06 EigRej= -1.00D+00 NBFU=   240
 Precomputing XC quadrature grid using
 IXCGrd= 4 IRadAn=           5 IRanWt=          -1 IRanGd=           0 AccXCQ= 0.00D+00.
 Generated NRdTot=       0 NPtTot=           0 NUsed=           0 NTot=          32
 NSgBfM=   249   249   249   249   249 MxSgAt=    15 MxSgA2=    15.
 Leave Link  302 at Sun Nov 20 17:26:08 2022, MaxMem= 16106127360 cpu:               5.3 elap:               0.2
 (Enter /opt/ap/G16/B01/g16/l303.exe)
 DipDrv:  MaxL=1.
 Leave Link  303 at Sun Nov 20 17:26:08 2022, MaxMem= 16106127360 cpu:               1.3 elap:               0.1
 (Enter /opt/ap/G16/B01/g16/l401.exe)
 ExpMin= 3.60D-02 ExpMax= 8.59D+03 ExpMxC= 1.30D+03 IAcc=3 IRadAn=         5 AccDes= 0.00D+00
 Harris functional with IExCor= 4639 and IRadAn=       5 diagonalized for initial guess.
 HarFok:  IExCor= 4639 AccDes= 0.00D+00 IRadAn=         5 IDoV= 1 UseB2=F ITyADJ=14
 ICtDFT=  3500011 ScaDFX=  1.000000  1.000000  1.000000  1.000000
 FoFCou: FMM=F IPFlag=           0 FMFlag=      100000 FMFlg1=           0
         NFxFlg=           0 DoJE=T BraDBF=F KetDBF=T FulRan=T
         wScrn=  0.000000 ICntrl=       500 IOpCl=  0 I1Cent=   200000004 NGrid=           0
         NMat0=    1 NMatS0=      1 NMatT0=    0 NMatD0=    1 NMtDS0=    0 NMtDT0=    0
 Petite list used in FoFCou.
 Harris En= -403.249595146038    
 JPrj=0 DoOrth=F DoCkMO=F.
 Leave Link  401 at Sun Nov 20 17:26:08 2022, MaxMem= 16106127360 cpu:              11.7 elap:               0.4
 (Enter /opt/ap/G16/B01/g16/l502.exe)
 Integral symmetry usage will be decided dynamically.
 Closed shell SCF:
 Using DIIS extrapolation, IDIIS=  1040.
 NGot= 16106127360 LenX= 16105992971 LenY= 16105930529
 Requested convergence on RMS density matrix=1.00D-08 within 512 cycles.
 Requested convergence on MAX density matrix=1.00D-06.
 Requested convergence on             energy=1.00D-06.
 No special actions if energy rises.
 Fock matrices will be formed incrementally for  20 cycles.

 Cycle   1  Pass 1  IDiag  1:
 FoFJK:  IHMeth= 1 ICntrl=       0 DoSepK=T KAlg= 0 I1Cent=           0 FoldK=F
 IRaf=         1 NMat=       1 IRICut=       1 DoRegI=T DoRafI=F ISym2E= 0 IDoP0=0 IntGTp=1.
 FoFCou: FMM=F IPFlag=           0 FMFlag=      100000 FMFlg1=           0
         NFxFlg=           0 DoJE=T BraDBF=F KetDBF=F FulRan=T
         wScrn=  0.000000 ICntrl=       500 IOpCl=  0 I1Cent=           0 NGrid=           0
         NMat0=    1 NMatS0=      1 NMatT0=    0 NMatD0=    1 NMtDS0=    0 NMtDT0=    0
 Symmetry not used in FoFCou.
 E= -420.628134630138    
 DIIS: error= 7.35D-02 at cycle   1 NSaved=   1.
 NSaved= 1 IEnMin= 1 EnMin= -420.628134630138     IErMin= 1 ErrMin= 7.35D-02
 ErrMax= 7.35D-02  0.00D+00 EMaxC= 1.00D-01 BMatC= 8.59D-01 BMatP= 8.59D-01
 IDIUse=3 WtCom= 2.65D-01 WtEn= 7.35D-01
 Coeff-Com:  0.100D+01
 Coeff-En:   0.100D+01
 Coeff:      0.100D+01
 Gap=     0.426 Goal=   None    Shift=    0.000
 GapD=    0.426 DampG=2.000 DampE=0.500 DampFc=1.0000 IDamp=-1.
 RMSDP=3.11D-02 MaxDP=2.43D+00              OVMax= 1.03D-01

 Cycle   2  Pass 1  IDiag  1:
 RMSU=  1.51D-02    CP:  6.62D-01
 E= -420.700043194996     Delta-E=       -0.071908564858 Rises=F Damp=F
 DIIS: error= 1.17D-02 at cycle   2 NSaved=   2.
 NSaved= 2 IEnMin= 2 EnMin= -420.700043194996     IErMin= 2 ErrMin= 1.17D-02
 ErrMax= 1.17D-02  0.00D+00 EMaxC= 1.00D-01 BMatC= 5.31D-02 BMatP= 8.59D-01
 IDIUse=3 WtCom= 8.83D-01 WtEn= 1.17D-01
 Coeff-Com:  0.131D+00 0.869D+00
 Coeff-En:   0.719D-01 0.928D+00
 Coeff:      0.124D+00 0.876D+00
 Gap=     0.422 Goal=   None    Shift=    0.000
 RMSDP=7.54D-03 MaxDP=5.07D-01 DE=-7.19D-02 OVMax= 7.09D-02

 Cycle   3  Pass 1  IDiag  1:
 RMSU=  6.26D-03    CP:  6.41D-01  7.43D-01
 E= -420.716632070122     Delta-E=       -0.016588875126 Rises=F Damp=F
 DIIS: error= 1.06D-02 at cycle   3 NSaved=   3.
 NSaved= 3 IEnMin= 3 EnMin= -420.716632070122     IErMin= 3 ErrMin= 1.06D-02
 ErrMax= 1.06D-02  0.00D+00 EMaxC= 1.00D-01 BMatC= 3.14D-02 BMatP= 5.31D-02
 IDIUse=3 WtCom= 8.94D-01 WtEn= 1.06D-01
 Coeff-Com:  0.262D-01 0.441D+00 0.533D+00
 Coeff-En:   0.000D+00 0.369D+00 0.631D+00
 Coeff:      0.234D-01 0.433D+00 0.543D+00
 Gap=     0.359 Goal=   None    Shift=    0.000
 RMSDP=3.39D-03 MaxDP=1.92D-01 DE=-1.66D-02 OVMax= 4.69D-02

 Cycle   4  Pass 1  IDiag  1:
 RMSU=  1.66D-03    CP:  6.27D-01  8.70D-01  6.94D-01
 E= -420.740174707146     Delta-E=       -0.023542637024 Rises=F Damp=F
 DIIS: error= 2.38D-03 at cycle   4 NSaved=   4.
 NSaved= 4 IEnMin= 4 EnMin= -420.740174707146     IErMin= 4 ErrMin= 2.38D-03
 ErrMax= 2.38D-03  0.00D+00 EMaxC= 1.00D-01 BMatC= 1.56D-03 BMatP= 3.14D-02
 IDIUse=3 WtCom= 9.76D-01 WtEn= 2.38D-02
 Coeff-Com:  0.104D-01 0.221D+00 0.305D+00 0.464D+00
 Coeff-En:   0.000D+00 0.000D+00 0.000D+00 0.100D+01
 Coeff:      0.101D-01 0.215D+00 0.298D+00 0.477D+00
 Gap=     0.347 Goal=   None    Shift=    0.000
 RMSDP=9.65D-04 MaxDP=5.93D-02 DE=-2.35D-02 OVMax= 1.09D-02

 Cycle   5  Pass 1  IDiag  1:
 RMSU=  7.00D-04    CP:  6.22D-01  8.54D-01  7.35D-01  7.62D-01
 E= -420.741233131755     Delta-E=       -0.001058424609 Rises=F Damp=F
 DIIS: error= 4.53D-04 at cycle   5 NSaved=   5.
 NSaved= 5 IEnMin= 5 EnMin= -420.741233131755     IErMin= 5 ErrMin= 4.53D-04
 ErrMax= 4.53D-04  0.00D+00 EMaxC= 1.00D-01 BMatC= 4.85D-05 BMatP= 1.56D-03
 IDIUse=3 WtCom= 9.95D-01 WtEn= 4.53D-03
 Coeff-Com:  0.271D-03 0.142D-01 0.287D-01 0.157D+00 0.800D+00
 Coeff-En:   0.000D+00 0.000D+00 0.000D+00 0.000D+00 0.100D+01
 Coeff:      0.270D-03 0.141D-01 0.286D-01 0.156D+00 0.801D+00
 Gap=     0.347 Goal=   None    Shift=    0.000
 RMSDP=2.28D-04 MaxDP=1.25D-02 DE=-1.06D-03 OVMax= 2.41D-03

 Cycle   6  Pass 1  IDiag  1:
 RMSU=  1.25D-04    CP:  6.20D-01  8.58D-01  7.51D-01  7.74D-01  1.03D+00
 E= -420.741271345262     Delta-E=       -0.000038213507 Rises=F Damp=F
 DIIS: error= 1.81D-04 at cycle   6 NSaved=   6.
 NSaved= 6 IEnMin= 6 EnMin= -420.741271345262     IErMin= 6 ErrMin= 1.81D-04
 ErrMax= 1.81D-04  0.00D+00 EMaxC= 1.00D-01 BMatC= 7.14D-06 BMatP= 4.85D-05
 IDIUse=3 WtCom= 9.98D-01 WtEn= 1.81D-03
 Coeff-Com: -0.984D-03-0.171D-01-0.189D-01 0.157D-01 0.349D+00 0.672D+00
 Coeff-En:   0.000D+00 0.000D+00 0.000D+00 0.000D+00 0.000D+00 0.100D+01
 Coeff:     -0.982D-03-0.171D-01-0.189D-01 0.156D-01 0.349D+00 0.673D+00
 Gap=     0.347 Goal=   None    Shift=    0.000
 RMSDP=1.64D-04 MaxDP=1.37D-02 DE=-3.82D-05 OVMax= 8.24D-04

 Cycle   7  Pass 1  IDiag  1:
 RMSU=  4.11D-05    CP:  6.18D-01  8.55D-01  7.62D-01  7.79D-01  1.12D+00
                    CP:  1.08D+00
 E= -420.741278294881     Delta-E=       -0.000006949619 Rises=F Damp=F
 DIIS: error= 6.97D-05 at cycle   7 NSaved=   7.
 NSaved= 7 IEnMin= 7 EnMin= -420.741278294881     IErMin= 7 ErrMin= 6.97D-05
 ErrMax= 6.97D-05  0.00D+00 EMaxC= 1.00D-01 BMatC= 3.06D-07 BMatP= 7.14D-06
 IDIUse=1 WtCom= 1.00D+00 WtEn= 0.00D+00
 Coeff-Com: -0.247D-03-0.570D-02-0.720D-02-0.140D-01 0.377D-02 0.140D+00
 Coeff-Com:  0.883D+00
 Coeff:     -0.247D-03-0.570D-02-0.720D-02-0.140D-01 0.377D-02 0.140D+00
 Coeff:      0.883D+00
 Gap=     0.347 Goal=   None    Shift=    0.000
 RMSDP=4.54D-05 MaxDP=2.49D-03 DE=-6.95D-06 OVMax= 3.33D-04

 Cycle   8  Pass 1  IDiag  1:
 RMSU=  1.55D-05    CP:  6.18D-01  8.55D-01  7.65D-01  7.78D-01  1.16D+00
                    CP:  1.12D+00  1.09D+00
 E= -420.741278867875     Delta-E=       -0.000000572994 Rises=F Damp=F
 DIIS: error= 1.57D-05 at cycle   8 NSaved=   8.
 NSaved= 8 IEnMin= 8 EnMin= -420.741278867875     IErMin= 8 ErrMin= 1.57D-05
 ErrMax= 1.57D-05  0.00D+00 EMaxC= 1.00D-01 BMatC= 4.19D-08 BMatP= 3.06D-07
 IDIUse=1 WtCom= 1.00D+00 WtEn= 0.00D+00
 Coeff-Com:  0.292D-04 0.223D-03 0.817D-04-0.635D-02-0.372D-01-0.366D-01
 Coeff-Com:  0.245D+00 0.835D+00
 Coeff:      0.292D-04 0.223D-03 0.817D-04-0.635D-02-0.372D-01-0.366D-01
 Coeff:      0.245D+00 0.835D+00
 Gap=     0.347 Goal=   None    Shift=    0.000
 RMSDP=1.49D-05 MaxDP=7.69D-04 DE=-5.73D-07 OVMax= 1.26D-04

 Cycle   9  Pass 1  IDiag  1:
 RMSU=  4.91D-06    CP:  6.18D-01  8.55D-01  7.65D-01  7.75D-01  1.18D+00
                    CP:  1.14D+00  1.16D+00  1.23D+00
 E= -420.741278942104     Delta-E=       -0.000000074229 Rises=F Damp=F
 DIIS: error= 1.09D-05 at cycle   9 NSaved=   9.
 NSaved= 9 IEnMin= 9 EnMin= -420.741278942104     IErMin= 9 ErrMin= 1.09D-05
 ErrMax= 1.09D-05  0.00D+00 EMaxC= 1.00D-01 BMatC= 5.30D-09 BMatP= 4.19D-08
 IDIUse=1 WtCom= 1.00D+00 WtEn= 0.00D+00
 Coeff-Com:  0.394D-04 0.753D-03 0.904D-03-0.536D-03-0.111D-01-0.285D-01
 Coeff-Com: -0.230D-01 0.265D+00 0.797D+00
 Coeff:      0.394D-04 0.753D-03 0.904D-03-0.536D-03-0.111D-01-0.285D-01
 Coeff:     -0.230D-01 0.265D+00 0.797D+00
 Gap=     0.347 Goal=   None    Shift=    0.000
 RMSDP=5.06D-06 MaxDP=2.86D-04 DE=-7.42D-08 OVMax= 5.05D-05

 Cycle  10  Pass 1  IDiag  1:
 RMSU=  1.59D-06    CP:  6.18D-01  8.55D-01  7.65D-01  7.73D-01  1.18D+00
                    CP:  1.14D+00  1.19D+00  1.33D+00  1.24D+00
 E= -420.741278951069     Delta-E=       -0.000000008966 Rises=F Damp=F
 DIIS: error= 1.45D-06 at cycle  10 NSaved=  10.
 NSaved=10 IEnMin=10 EnMin= -420.741278951069     IErMin=10 ErrMin= 1.45D-06
 ErrMax= 1.45D-06  0.00D+00 EMaxC= 1.00D-01 BMatC= 7.08D-10 BMatP= 5.30D-09
 IDIUse=1 WtCom= 1.00D+00 WtEn= 0.00D+00
 Coeff-Com:  0.815D-05 0.177D-03 0.234D-03 0.408D-03 0.984D-03-0.504D-02
 Coeff-Com: -0.316D-01-0.164D-01 0.248D+00 0.803D+00
 Coeff:      0.815D-05 0.177D-03 0.234D-03 0.408D-03 0.984D-03-0.504D-02
 Coeff:     -0.316D-01-0.164D-01 0.248D+00 0.803D+00
 Gap=     0.347 Goal=   None    Shift=    0.000
 RMSDP=1.73D-06 MaxDP=1.18D-04 DE=-8.97D-09 OVMax= 1.51D-05

 Cycle  11  Pass 1  IDiag  1:
 RMSU=  3.78D-07    CP:  6.18D-01  8.55D-01  7.65D-01  7.72D-01  1.18D+00
                    CP:  1.14D+00  1.19D+00  1.38D+00  1.37D+00  1.16D+00
 E= -420.741278952181     Delta-E=       -0.000000001112 Rises=F Damp=F
 DIIS: error= 8.25D-07 at cycle  11 NSaved=  11.
 NSaved=11 IEnMin=11 EnMin= -420.741278952181     IErMin=11 ErrMin= 8.25D-07
 ErrMax= 8.25D-07  0.00D+00 EMaxC= 1.00D-01 BMatC= 1.12D-10 BMatP= 7.08D-10
 IDIUse=1 WtCom= 1.00D+00 WtEn= 0.00D+00
 Coeff-Com: -0.176D-05-0.159D-04-0.589D-05 0.259D-03 0.202D-02 0.148D-02
 Coeff-Com: -0.871D-02-0.471D-01-0.173D-01 0.305D+00 0.765D+00
 Coeff:     -0.176D-05-0.159D-04-0.589D-05 0.259D-03 0.202D-02 0.148D-02
 Coeff:     -0.871D-02-0.471D-01-0.173D-01 0.305D+00 0.765D+00
 Gap=     0.347 Goal=   None    Shift=    0.000
 RMSDP=7.28D-07 MaxDP=4.33D-05 DE=-1.11D-09 OVMax= 6.96D-06

 Cycle  12  Pass 1  IDiag  1:
 RMSU=  2.54D-07    CP:  6.18D-01  8.55D-01  7.65D-01  7.72D-01  1.18D+00
                    CP:  1.14D+00  1.20D+00  1.39D+00  1.41D+00  1.32D+00
                    CP:  1.13D+00
 E= -420.741278952354     Delta-E=       -0.000000000173 Rises=F Damp=F
 DIIS: error= 1.65D-07 at cycle  12 NSaved=  12.
 NSaved=12 IEnMin=12 EnMin= -420.741278952354     IErMin=12 ErrMin= 1.65D-07
 ErrMax= 1.65D-07  0.00D+00 EMaxC= 1.00D-01 BMatC= 9.22D-12 BMatP= 1.12D-10
 IDIUse=1 WtCom= 1.00D+00 WtEn= 0.00D+00
 Coeff-Com: -0.113D-05-0.187D-04-0.200D-04 0.369D-04 0.460D-03 0.690D-03
 Coeff-Com:  0.947D-03-0.111D-01-0.257D-01 0.858D-02 0.198D+00 0.829D+00
 Coeff:     -0.113D-05-0.187D-04-0.200D-04 0.369D-04 0.460D-03 0.690D-03
 Coeff:      0.947D-03-0.111D-01-0.257D-01 0.858D-02 0.198D+00 0.829D+00
 Gap=     0.347 Goal=   None    Shift=    0.000
 RMSDP=1.40D-07 MaxDP=9.45D-06 DE=-1.73D-10 OVMax= 3.19D-06

 Cycle  13  Pass 1  IDiag  1:
 RMSU=  6.36D-08    CP:  6.18D-01  8.55D-01  7.65D-01  7.72D-01  1.18D+00
                    CP:  1.14D+00  1.20D+00  1.39D+00  1.43D+00  1.34D+00
                    CP:  1.21D+00  1.01D+00
 E= -420.741278952382     Delta-E=       -0.000000000028 Rises=F Damp=F
 DIIS: error= 9.90D-08 at cycle  13 NSaved=  13.
 NSaved=13 IEnMin=13 EnMin= -420.741278952382     IErMin=13 ErrMin= 9.90D-08
 ErrMax= 9.90D-08  0.00D+00 EMaxC= 1.00D-01 BMatC= 1.56D-12 BMatP= 9.22D-12
 IDIUse=1 WtCom= 1.00D+00 WtEn= 0.00D+00
 Coeff-Com:  0.434D-07-0.386D-05-0.696D-05-0.429D-04-0.272D-03-0.129D-03
 Coeff-Com:  0.205D-02 0.591D-02-0.296D-02-0.567D-01-0.106D+00 0.199D+00
 Coeff-Com:  0.960D+00
 Coeff:      0.434D-07-0.386D-05-0.696D-05-0.429D-04-0.272D-03-0.129D-03
 Coeff:      0.205D-02 0.591D-02-0.296D-02-0.567D-01-0.106D+00 0.199D+00
 Coeff:      0.960D+00
 Gap=     0.347 Goal=   None    Shift=    0.000
 RMSDP=7.86D-08 MaxDP=7.19D-06 DE=-2.84D-11 OVMax= 2.27D-06

 Cycle  14  Pass 1  IDiag  1:
 RMSU=  2.51D-08    CP:  6.18D-01  8.55D-01  7.65D-01  7.72D-01  1.18D+00
                    CP:  1.14D+00  1.20D+00  1.39D+00  1.43D+00  1.35D+00
                    CP:  1.25D+00  1.10D+00  1.35D+00
 E= -420.741278952386     Delta-E=       -0.000000000004 Rises=F Damp=F
 DIIS: error= 4.13D-08 at cycle  14 NSaved=  14.
 NSaved=14 IEnMin=14 EnMin= -420.741278952386     IErMin=14 ErrMin= 4.13D-08
 ErrMax= 4.13D-08  0.00D+00 EMaxC= 1.00D-01 BMatC= 1.60D-13 BMatP= 1.56D-12
 IDIUse=1 WtCom= 1.00D+00 WtEn= 0.00D+00
 Coeff-Com:  0.935D-07 0.177D-05 0.196D-05-0.488D-05-0.698D-04-0.559D-04
 Coeff-Com: -0.230D-04 0.145D-02 0.252D-02-0.423D-02-0.251D-01-0.827D-01
 Coeff-Com:  0.336D-01 0.107D+01
 Coeff:      0.935D-07 0.177D-05 0.196D-05-0.488D-05-0.698D-04-0.559D-04
 Coeff:     -0.230D-04 0.145D-02 0.252D-02-0.423D-02-0.251D-01-0.827D-01
 Coeff:      0.336D-01 0.107D+01
 Gap=     0.347 Goal=   None    Shift=    0.000
 RMSDP=2.82D-08 MaxDP=2.01D-06 DE=-3.52D-12 OVMax= 9.58D-07

 Cycle  15  Pass 1  IDiag  1:
 RMSU=  8.20D-09    CP:  6.18D-01  8.55D-01  7.65D-01  7.72D-01  1.18D+00
                    CP:  1.14D+00  1.20D+00  1.39D+00  1.43D+00  1.35D+00
                    CP:  1.25D+00  1.09D+00  1.55D+00  1.33D+00
 E= -420.741278952388     Delta-E=       -0.000000000003 Rises=F Damp=F
 DIIS: error= 2.45D-08 at cycle  15 NSaved=  15.
 NSaved=15 IEnMin=15 EnMin= -420.741278952388     IErMin=15 ErrMin= 2.45D-08
 ErrMax= 2.45D-08  0.00D+00 EMaxC= 1.00D-01 BMatC= 4.18D-14 BMatP= 1.60D-13
 IDIUse=1 WtCom= 1.00D+00 WtEn= 0.00D+00
 Coeff-Com:  0.214D-07 0.118D-05 0.179D-05 0.525D-05 0.179D-04 0.934D-05
 Coeff-Com: -0.333D-03-0.395D-03 0.134D-02 0.763D-02 0.858D-02-0.559D-01
 Coeff-Com: -0.143D+00 0.374D+00 0.808D+00
 Coeff:      0.214D-07 0.118D-05 0.179D-05 0.525D-05 0.179D-04 0.934D-05
 Coeff:     -0.333D-03-0.395D-03 0.134D-02 0.763D-02 0.858D-02-0.559D-01
 Coeff:     -0.143D+00 0.374D+00 0.808D+00
 Gap=     0.347 Goal=   None    Shift=    0.000
 RMSDP=7.93D-09 MaxDP=3.06D-07 DE=-2.61D-12 OVMax= 3.04D-07

 SCF Done:  E(RwB97XD) =  -420.741278952     A.U. after   15 cycles
            NFock= 15  Conv=0.79D-08     -V/T= 2.0015
 KE= 4.201312594531D+02 PE=-1.802724352685D+03 EE= 5.522533532711D+02
 Leave Link  502 at Sun Nov 20 17:26:21 2022, MaxMem= 16106127360 cpu:             408.7 elap:              12.8
 (Enter /opt/ap/G16/B01/g16/l601.exe)
 Copying SCF densities to generalized density rwf, IOpCl= 0 IROHF=0.

 **********************************************************************

            Population analysis using the SCF Density.

 **********************************************************************

 Orbital symmetries:
       Occupied  (A) (A) (A) (A) (A) (A) (A) (A) (A) (A) (A) (A)
                 (A) (A) (A) (A) (A) (A) (A) (A) (A) (A) (A) (A)
                 (A) (A) (A) (A) (A) (A) (A) (A)
       Virtual   (A) (A) (A) (A) (A) (A) (A) (A) (A) (A) (A) (A)
                 (A) (A) (A) (A) (A) (A) (A) (A) (A) (A) (A) (A)
                 (A) (A) (A) (A) (A) (A) (A) (A) (A) (A) (A) (A)
                 (A) (A) (A) (A) (A) (A) (A) (A) (A) (A) (A) (A)
                 (A) (A) (A) (A) (A) (A) (A) (A) (A) (A) (A) (A)
                 (A) (A) (A) (A) (A) (A) (A) (A) (A) (A) (A) (A)
                 (A) (A) (A) (A) (A) (A) (A) (A) (A) (A) (A) (A)
                 (A) (A) (A) (A) (A) (A) (A) (A) (A) (A) (A) (A)
                 (A) (A) (A) (A) (A) (A) (A) (A) (A) (A) (A) (A)
                 (A) (A) (A) (A) (A) (A) (A) (A) (A) (A) (A) (A)
                 (A) (A) (A) (A) (A) (A) (A) (A) (A) (A) (A) (A)
                 (A) (A) (A) (A) (A) (A) (A) (A) (A) (A) (A) (A)
                 (A) (A) (A) (A) (A) (A) (A) (A) (A) (A) (A) (A)
                 (A) (A) (A) (A) (A) (A) (A) (A) (A) (A) (A) (A)
                 (A) (A) (A) (A) (A) (A) (A) (A) (A) (A) (A) (A)
                 (A) (A) (A) (A) (A) (A) (A) (A) (A) (A) (A) (A)
                 (A) (A) (A) (A) (A) (A) (A) (A) (A) (A) (A) (A)
                 (A) (A) (A) (A)
 The electronic state is 1-A.
 Alpha  occ. eigenvalues --  -19.31148 -19.22966 -10.43157 -10.30980 -10.29344
 Alpha  occ. eigenvalues --  -10.29317 -10.29227 -10.29018 -10.28765  -1.25529
 Alpha  occ. eigenvalues --   -1.10685  -0.98086  -0.88835  -0.87036  -0.80322
 Alpha  occ. eigenvalues --   -0.73403  -0.72034  -0.65959  -0.60885  -0.58639
 Alpha  occ. eigenvalues --   -0.56727  -0.56072  -0.54198  -0.53497  -0.48478
 Alpha  occ. eigenvalues --   -0.47392  -0.45401  -0.44579  -0.41296  -0.36136
 Alpha  occ. eigenvalues --   -0.34685  -0.34332
 Alpha virt. eigenvalues --    0.00369   0.03668   0.04260   0.04508   0.05275
 Alpha virt. eigenvalues --    0.06488   0.07819   0.08704   0.10192   0.11035
 Alpha virt. eigenvalues --    0.11871   0.12935   0.13321   0.14282   0.14600
 Alpha virt. eigenvalues --    0.16006   0.16356   0.16925   0.17402   0.17949
 Alpha virt. eigenvalues --    0.18123   0.19483   0.20067   0.20110   0.20473
 Alpha virt. eigenvalues --    0.21161   0.21562   0.21717   0.23410   0.23831
 Alpha virt. eigenvalues --    0.25527   0.26316   0.26919   0.27809   0.28173
 Alpha virt. eigenvalues --    0.29610   0.29877   0.30613   0.31081   0.32031
 Alpha virt. eigenvalues --    0.32178   0.33441   0.34441   0.35368   0.36013
 Alpha virt. eigenvalues --    0.36246   0.37153   0.37959   0.39591   0.39918
 Alpha virt. eigenvalues --    0.41622   0.42058   0.42526   0.44127   0.45794
 Alpha virt. eigenvalues --    0.46694   0.50219   0.53393   0.54664   0.57730
 Alpha virt. eigenvalues --    0.59609   0.60303   0.61907   0.63731   0.64090
 Alpha virt. eigenvalues --    0.64449   0.64980   0.65956   0.66151   0.69064
 Alpha virt. eigenvalues --    0.69967   0.72192   0.73885   0.74198   0.75188
 Alpha virt. eigenvalues --    0.76737   0.80976   0.82448   0.83493   0.86258
 Alpha virt. eigenvalues --    0.88538   0.90316   0.92920   0.93723   0.94645
 Alpha virt. eigenvalues --    0.96265   0.96931   0.97751   0.99790   1.00544
 Alpha virt. eigenvalues --    1.03854   1.07324   1.07878   1.09699   1.10989
 Alpha virt. eigenvalues --    1.14244   1.15086   1.16003   1.16474   1.18427
 Alpha virt. eigenvalues --    1.21214   1.21427   1.24225   1.27775   1.29189
 Alpha virt. eigenvalues --    1.34637   1.40645   1.43900   1.45775   1.55046
 Alpha virt. eigenvalues --    1.58368   1.58983   1.60527   1.60988   1.62292
 Alpha virt. eigenvalues --    1.62658   1.66141   1.67018   1.67628   1.74843
 Alpha virt. eigenvalues --    1.75103   1.77330   1.79139   1.83108   1.87716
 Alpha virt. eigenvalues --    1.88027   1.91150   1.91691   1.94792   2.00292
 Alpha virt. eigenvalues --    2.00378   2.01880   2.03532   2.04473   2.05334
 Alpha virt. eigenvalues --    2.07155   2.10604   2.15415   2.17974   2.19410
 Alpha virt. eigenvalues --    2.23157   2.28836   2.29233   2.42710   2.45950
 Alpha virt. eigenvalues --    2.51951   2.53907   2.54492   2.57357   2.58942
 Alpha virt. eigenvalues --    2.71357   2.72841   2.75035   2.77351   2.81062
 Alpha virt. eigenvalues --    2.81714   2.83070   2.88214   2.89503   2.90523
 Alpha virt. eigenvalues --    2.90666   2.91802   2.96134   2.99694   3.00377
 Alpha virt. eigenvalues --    3.04627   3.05736   3.06408   3.15450   3.18638
 Alpha virt. eigenvalues --    3.18819   3.23204   3.28143   3.31849   3.38363
 Alpha virt. eigenvalues --    3.39475   3.45350   3.48434   3.50236   3.63627
 Alpha virt. eigenvalues --    3.66299   3.68860   3.74197   3.84335   3.87665
 Alpha virt. eigenvalues --    4.04803   4.17037   4.28356   4.30735   4.36673
 Alpha virt. eigenvalues --    4.40385   4.45115   4.94906   5.10234   5.15512
 Alpha virt. eigenvalues --    5.30455   5.47730   5.82835   6.08126  23.84019
 Alpha virt. eigenvalues --   23.94528  24.14111  24.21338  24.28312  24.30391
 Alpha virt. eigenvalues --   24.41803  50.04383  50.16509
          Condensed to atoms (all electrons):
               1          2          3          4          5          6
     1  C   10.288060  -2.904602  -1.671176   2.081908  -0.048280  -2.130887
     2  C   -2.904602  16.688313  -1.996094  -5.518932   0.758064  -0.836456
     3  C   -1.671176  -1.996094  12.927701   0.172344  -0.055230  -0.707582
     4  C    2.081908  -5.518932   0.172344   8.929342  -0.201254   0.043512
     5  H   -0.048280   0.758064  -0.055230  -0.201254   0.487720  -0.131264
     6  C   -2.130887  -0.836456  -0.707582   0.043512  -0.131264   8.534166
     7  C    0.940010  -0.486078  -3.460113   0.817018   0.004817   0.351981
     8  H   -0.027484   0.030405   0.548413  -0.017736   0.000502  -0.072924
     9  C   -1.181724   1.566340   1.081543  -0.913594   0.040722  -0.176790
    10  H    0.045270  -0.164474   0.025362   0.464826  -0.014142   0.019929
    11  O   -0.213876  -0.243186  -0.047069   0.083303  -0.044707   0.468742
    12  O   -0.224425  -0.108505  -0.048919   0.061775  -0.006659   0.623369
    13  H    0.030816   0.002707  -0.131291   0.004820   0.000108   0.018684
    14  H    0.007500   0.024372   0.009473  -0.063509   0.001493  -0.014785
    15  H   -0.042243   0.001722   0.003529  -0.018688   0.001000   0.045526
               7          8          9         10         11         12
     1  C    0.940010  -0.027484  -1.181724   0.045270  -0.213876  -0.224425
     2  C   -0.486078   0.030405   1.566340  -0.164474  -0.243186  -0.108505
     3  C   -3.460113   0.548413   1.081543   0.025362  -0.047069  -0.048919
     4  C    0.817018  -0.017736  -0.913594   0.464826   0.083303   0.061775
     5  H    0.004817   0.000502   0.040722  -0.014142  -0.044707  -0.006659
     6  C    0.351981  -0.072924  -0.176790   0.019929   0.468742   0.623369
     7  C    8.118739  -0.117061  -0.764670  -0.004119   0.071336   0.121537
     8  H   -0.117061   0.432746   0.029524   0.000174  -0.006184  -0.008765
     9  C   -0.764670   0.029524   6.511652  -0.050494  -0.040373  -0.024361
    10  H   -0.004119   0.000174  -0.050494   0.474226   0.003637   0.000744
    11  O    0.071336  -0.006184  -0.040373   0.003637   7.991703  -0.129684
    12  O    0.121537  -0.008765  -0.024361   0.000744  -0.129684   8.066876
    13  H    0.450500  -0.009822  -0.041866  -0.000820   0.001281   0.002030
    14  H   -0.045696   0.000799   0.438035  -0.008075  -0.000662  -0.000457
    15  H    0.010888  -0.000450  -0.003425  -0.000036   0.283938  -0.000066
              13         14         15
     1  C    0.030816   0.007500  -0.042243
     2  C    0.002707   0.024372   0.001722
     3  C   -0.131291   0.009473   0.003529
     4  C    0.004820  -0.063509  -0.018688
     5  H    0.000108   0.001493   0.001000
     6  C    0.018684  -0.014785   0.045526
     7  C    0.450500  -0.045696   0.010888
     8  H   -0.009822   0.000799  -0.000450
     9  C   -0.041866   0.438035  -0.003425
    10  H   -0.000820  -0.008075  -0.000036
    11  O    0.001281  -0.000662   0.283938
    12  O    0.002030  -0.000457  -0.000066
    13  H    0.465975  -0.007041   0.000150
    14  H   -0.007041   0.471337  -0.000113
    15  H    0.000150  -0.000113   0.396321
 Mulliken charges:
               1
     1  C    1.051132
     2  C   -0.813594
     3  C   -0.650892
     4  C    0.074864
     5  H    0.207110
     6  C   -0.035220
     7  C   -0.009089
     8  H    0.217861
     9  C   -0.470519
    10  H    0.207993
    11  O   -0.178200
    12  O   -0.324491
    13  H    0.213768
    14  H    0.187330
    15  H    0.321947
 Sum of Mulliken charges =  -0.00000
 Mulliken charges with hydrogens summed into heavy atoms:
               1
     1  C    1.051132
     2  C   -0.606484
     3  C   -0.433031
     4  C    0.282857
     6  C   -0.035220
     7  C    0.204679
     9  C   -0.283189
    11  O    0.143747
    12  O   -0.324491
 Electronic spatial extent (au):  <R**2>=           1157.2709
 Charge=             -0.0000 electrons
 Dipole moment (field-independent basis, Debye):
    X=              1.5783    Y=             -2.3563    Z=              0.7675  Tot=              2.9381
 Quadrupole moment (field-independent basis, Debye-Ang):
   XX=            -44.9855   YY=            -49.5884   ZZ=            -53.7031
   XY=              8.0856   XZ=             -2.7562   YZ=             -1.1493
 Traceless Quadrupole moment (field-independent basis, Debye-Ang):
   XX=              4.4402   YY=             -0.1627   ZZ=             -4.2774
   XY=              8.0856   XZ=             -2.7562   YZ=             -1.1493
 Octapole moment (field-independent basis, Debye-Ang**2):
  XXX=            -12.9966  YYY=             -4.6003  ZZZ=              0.3341  XYY=              6.5086
  XXY=            -25.8289  XXZ=              9.1927  XZZ=            -12.5085  YZZ=             -0.8288
  YYZ=              1.1947  XYZ=              3.7154
 Hexadecapole moment (field-independent basis, Debye-Ang**3):
 XXXX=           -906.7521 YYYY=           -358.5066 ZZZZ=            -58.6710 XXXY=             85.8324
 XXXZ=            -30.7501 YYYX=             17.5297 YYYZ=             -2.1022 ZZZX=             -1.8863
 ZZZY=             -0.7438 XXYY=           -232.0279 XXZZ=           -190.5989 YYZZ=            -78.5021
 XXYZ=            -11.5309 YYXZ=             -3.9243 ZZXY=              3.2356
 N-N= 4.095984610080D+02 E-N=-1.802724352965D+03  KE= 4.201312594531D+02
 No NMR shielding tensors so no spin-rotation constants.
 Leave Link  601 at Sun Nov 20 17:26:21 2022, MaxMem= 16106127360 cpu:               3.3 elap:               0.1
 (Enter /opt/ap/G16/B01/g16/l9999.exe)
 1\1\GINC-N07\SP\RwB97XD\6-311++G(d,p)\C7H6O2\ROOT\20-Nov-2022\0\\#P wB
 97XD/6-311++G(d,p) scf=maxcycle=512\\_conf011.gjf nmol_natom 1_15\\0,1
 \C\C,1,1.39016191\C,1,1.39194539,2,119.895942\C,2,1.38669027,1,119.880
 75721,3,0.70825972,0\H,2,0.98744251,1,119.71654057,3,-179.90726164,0\C
 ,1,1.48428757,2,119.93615286,4,-179.87772406,0\C,3,1.40101108,1,119.72
 36454,2,-0.26266839,0\H,3,0.9902154,1,119.1886159,2,178.85397616,0\C,4
 ,1.37899003,2,120.45785903,1,-0.48041454,0\H,4,0.9834739,2,120.3044270
 6,1,179.36166981,0\O,6,1.27459751,1,118.00615353,2,-1.25976832,0\O,6,1
 .26362572,1,118.77715367,2,179.20603801,0\H,7,0.98977053,3,119.3786157
 8,1,-178.93545741,0\H,9,0.99498061,4,119.46722635,2,-178.58826714,0\H,
 11,0.89680392,6,118.15823763,1,-215.,0\\Version=ES64L-G16RevB.01\State
 =1-A\HF=-420.741279\RMSD=7.928e-09\Dipole=0.1032069,0.3048485,1.110217
 7\Quadrupole=7.5671961,-3.1853697,-4.3818264,-2.2033916,-1.8348545,-0.
 2312663\PG=C01 [X(C7H6O2)]\\@


 At the touch of love, everyone becomes a poet.
                                -- Plato
 Job cpu time:       0 days  0 hours  7 minutes 21.2 seconds.
 Elapsed time:       0 days  0 hours  0 minutes 13.9 seconds.
 File lengths (MBytes):  RWF=     35 Int=      0 D2E=      0 Chk=      4 Scr=      1
 Normal termination of Gaussian 16 at Sun Nov 20 17:26:21 2022.
