 Entering Gaussian System, Link 0=g16
 Input=_conf029.gjf
 Output=_conf029.log
 Initial command:
 /opt/ap/G16/B01/g16/l1.exe "/tmp2/scr/Gau-18178.inp" -scrdir="/tmp2/scr/"
 Entering Link 1 = /opt/ap/G16/B01/g16/l1.exe PID=     18179.
  
 Copyright (c) 1988-2017, Gaussian, Inc.  All Rights Reserved.
  
 This is part of the Gaussian(R) 16 program.  It is based on
 the Gaussian(R) 09 system (copyright 2009, Gaussian, Inc.),
 the Gaussian(R) 03 system (copyright 2003, Gaussian, Inc.),
 the Gaussian(R) 98 system (copyright 1998, Gaussian, Inc.),
 the Gaussian(R) 94 system (copyright 1995, Gaussian, Inc.),
 the Gaussian 92(TM) system (copyright 1992, Gaussian, Inc.),
 the Gaussian 90(TM) system (copyright 1990, Gaussian, Inc.),
 the Gaussian 88(TM) system (copyright 1988, Gaussian, Inc.),
 the Gaussian 86(TM) system (copyright 1986, Carnegie Mellon
 University), and the Gaussian 82(TM) system (copyright 1983,
 Carnegie Mellon University). Gaussian is a federally registered
 trademark of Gaussian, Inc.
  
 This software contains proprietary and confidential information,
 including trade secrets, belonging to Gaussian, Inc.
  
 This software is provided under written license and may be
 used, copied, transmitted, or stored only in accord with that
 written license.
  
 The following legend is applicable only to US Government
 contracts under FAR:
  
                    RESTRICTED RIGHTS LEGEND
  
 Use, reproduction and disclosure by the US Government is
 subject to restrictions as set forth in subparagraphs (a)
 and (c) of the Commercial Computer Software - Restricted
 Rights clause in FAR 52.227-19.
  
 Gaussian, Inc.
 340 Quinnipiac St., Bldg. 40, Wallingford CT 06492
  
  
 ---------------------------------------------------------------
 Warning -- This program may not be used in any manner that
 competes with the business of Gaussian, Inc. or will provide
 assistance to any competitor of Gaussian, Inc.  The licensee
 of this program is prohibited from giving any competitor of
 Gaussian, Inc. access to this program.  By using this program,
 the user acknowledges that Gaussian, Inc. is engaged in the
 business of creating and licensing software in the field of
 computational chemistry and represents and warrants to the
 licensee that it is not a competitor of Gaussian, Inc. and that
 it will not use this program in any manner prohibited above.
 ---------------------------------------------------------------
  

 Cite this work as:
 Gaussian 16, Revision B.01,
 M. J. Frisch, G. W. Trucks, H. B. Schlegel, G. E. Scuseria, 
 M. A. Robb, J. R. Cheeseman, G. Scalmani, V. Barone, 
 G. A. Petersson, H. Nakatsuji, X. Li, M. Caricato, A. V. Marenich, 
 J. Bloino, B. G. Janesko, R. Gomperts, B. Mennucci, H. P. Hratchian, 
 J. V. Ortiz, A. F. Izmaylov, J. L. Sonnenberg, D. Williams-Young, 
 F. Ding, F. Lipparini, F. Egidi, J. Goings, B. Peng, A. Petrone, 
 T. Henderson, D. Ranasinghe, V. G. Zakrzewski, J. Gao, N. Rega, 
 G. Zheng, W. Liang, M. Hada, M. Ehara, K. Toyota, R. Fukuda, 
 J. Hasegawa, M. Ishida, T. Nakajima, Y. Honda, O. Kitao, H. Nakai, 
 T. Vreven, K. Throssell, J. A. Montgomery, Jr., J. E. Peralta, 
 F. Ogliaro, M. J. Bearpark, J. J. Heyd, E. N. Brothers, K. N. Kudin, 
 V. N. Staroverov, T. A. Keith, R. Kobayashi, J. Normand, 
 K. Raghavachari, A. P. Rendell, J. C. Burant, S. S. Iyengar, 
 J. Tomasi, M. Cossi, J. M. Millam, M. Klene, C. Adamo, R. Cammi, 
 J. W. Ochterski, R. L. Martin, K. Morokuma, O. Farkas, 
 J. B. Foresman, and D. J. Fox, Gaussian, Inc., Wallingford CT, 2016.
 
 ******************************************
 Gaussian 16:  ES64L-G16RevB.01 20-Dec-2017
                20-Nov-2022 
 ******************************************
 %nprocshared=32
 Will use up to   32 processors via shared memory.
 %mem=120GB
 %chk=_conf029.chk
 ----------------------------------------
 #P wB97XD/6-311++G(d,p) scf=maxcycle=512
 ----------------------------------------
 1/38=1,172=1/1;
 2/12=2,17=6,18=5,40=1/2;
 3/5=4,6=6,7=1111,11=2,25=1,30=1,74=-58/1,2,3;
 4//1;
 5/5=2,7=512,38=5/2;
 6/7=2,8=2,9=2,10=2,28=1/1;
 99/5=1,9=1/99;
 Leave Link    1 at Sun Nov 20 17:27:19 2022, MaxMem= 16106127360 cpu:               1.4 elap:               0.1
 (Enter /opt/ap/G16/B01/g16/l101.exe)
 ----------------------------
 _conf029.gjf nmol_natom 1_15
 ----------------------------
 Symbolic Z-matrix:
 Charge =  0 Multiplicity = 1
 C
 C                    1     1.39016 
 C                    1     1.39195  2     119.89594 
 C                    2     1.38669  1     119.88076  3     0.70826  0
 H                    2     0.98744  1     119.71654  3    -179.90726  0
 C                    1     1.48429  2     119.93615  4    -179.87772  0
 C                    3     1.40101  1     119.72365  2    -0.26267  0
 H                    3     0.99022  1     119.18862  2     178.85398  0
 C                    4     1.37899  2     120.45786  1    -0.48041  0
 H                    4     0.98347  2     120.30443  1     179.36167  0
 O                    6     1.2746   1     118.00615  2    -1.25977  0
 O                    6     1.26363  1     118.77715  2     179.20604  0
 H                    7     0.98977  3     119.37862  1    -178.93546  0
 H                    9     0.99498  4     119.46723  2    -178.58827  0
 H                    11    0.8968   6     118.15824  1    -125.     0
 
 ITRead=  0  0  0  0  0  0  0  0  0  0  0  0  0  0  0
 MicOpt= -1 -1 -1 -1 -1 -1 -1 -1 -1 -1 -1 -1 -1 -1 -1
 NAtoms=     15 NQM=       15 NQMF=       0 NMMI=      0 NMMIF=      0
                NMic=       0 NMicF=      0.
                    Isotopes and Nuclear Properties:
 (Nuclear quadrupole moments (NQMom) in fm**2, nuclear magnetic moments (NMagM)
  in nuclear magnetons)

  Atom         1           2           3           4           5           6           7           8           9          10
 IAtWgt=          12          12          12          12           1          12          12           1          12           1
 AtmWgt=  12.0000000  12.0000000  12.0000000  12.0000000   1.0078250  12.0000000  12.0000000   1.0078250  12.0000000   1.0078250
 NucSpn=           0           0           0           0           1           0           0           1           0           1
 AtZEff=  -0.0000000  -0.0000000  -0.0000000  -0.0000000  -0.0000000  -0.0000000  -0.0000000  -0.0000000  -0.0000000  -0.0000000
 NQMom=    0.0000000   0.0000000   0.0000000   0.0000000   0.0000000   0.0000000   0.0000000   0.0000000   0.0000000   0.0000000
 NMagM=    0.0000000   0.0000000   0.0000000   0.0000000   2.7928460   0.0000000   0.0000000   2.7928460   0.0000000   2.7928460
 AtZNuc=   6.0000000   6.0000000   6.0000000   6.0000000   1.0000000   6.0000000   6.0000000   1.0000000   6.0000000   1.0000000

  Atom        11          12          13          14          15
 IAtWgt=          16          16           1           1           1
 AtmWgt=  15.9949146  15.9949146   1.0078250   1.0078250   1.0078250
 NucSpn=           0           0           1           1           1
 AtZEff=  -0.0000000  -0.0000000  -0.0000000  -0.0000000  -0.0000000
 NQMom=    0.0000000   0.0000000   0.0000000   0.0000000   0.0000000
 NMagM=    0.0000000   0.0000000   2.7928460   2.7928460   2.7928460
 AtZNuc=   8.0000000   8.0000000   1.0000000   1.0000000   1.0000000
 Leave Link  101 at Sun Nov 20 17:27:19 2022, MaxMem= 16106127360 cpu:               5.2 elap:               0.2
 (Enter /opt/ap/G16/B01/g16/l202.exe)
                          Input orientation:                          
 ---------------------------------------------------------------------
 Center     Atomic      Atomic             Coordinates (Angstroms)
 Number     Number       Type             X           Y           Z
 ---------------------------------------------------------------------
      1          6           0        0.000000    0.000000    0.000000
      2          6           0        0.000000    0.000000    1.390162
      3          6           0        1.206722    0.000000   -0.693782
      4          6           0        1.202258    0.014862    2.081006
      5          1           0       -0.857581   -0.001388    1.879646
      6          6           0       -1.286190   -0.013155   -0.740711
      7          6           0        2.415349    0.005578    0.014752
      8          1           0        1.194584   -0.017290   -1.683772
      9          6           0        2.400563    0.019708    1.398617
     10          1           0        1.209438    0.024411    3.064408
     11          8           0       -2.365984   -0.048941   -0.064425
     12          8           0       -1.260842    0.002453   -2.003986
     13          1           0        3.270315    0.021574   -0.483669
     14          1           0        3.254554    0.009066    1.909081
     15          1           0       -2.951554   -0.706015   -0.236523
 ---------------------------------------------------------------------
                    Distance matrix (angstroms):
                    1          2          3          4          5
     1  C    0.000000
     2  C    1.390162   0.000000
     3  C    1.391945   2.408112   0.000000
     4  C    2.403379   1.386690   2.774832   0.000000
     5  H    2.066039   0.987443   3.299073   2.069721   0.000000
     6  C    1.484288   2.488991   2.493388   3.762345   2.655206
     7  C    2.415401   2.779513   1.401011   2.396056   3.766955
     8  H    2.064563   3.297939   0.990215   3.764924   4.112127
     9  C    2.778349   2.400659   2.409104   1.378990   3.293530
    10  H    3.294530   2.065535   3.758270   0.983474   2.382624
    11  O    2.367367   2.777786   3.628045   4.164047   2.461088
    12  O    2.367633   3.620769   2.793834   4.770133   3.904515
    13  H    3.305958   3.769173   2.074374   3.294611   4.756607
    14  H    3.773167   3.295676   3.311886   2.059493   4.112253
    15  H    3.044022   3.443288   4.242500   4.810900   3.059313
                    6          7          8          9         10
     6  C    0.000000
     7  C    3.777892   0.000000
     8  H    2.653982   2.091836   0.000000
     9  C    4.262622   1.384016   3.310118   0.000000
    10  H    4.550659   3.279477   4.748386   2.047842   0.000000
    11  O    1.274598   4.782299   3.911641   4.986499   4.751696
    12  O    1.263626   4.194007   2.476296   4.998389   5.638384
    13  H    4.563881   0.989771   2.398003   2.073517   4.103177
    14  H    5.257398   2.071897   4.141589   0.994981   2.348938
    15  H    1.872885   5.419701   4.445147   5.643183   5.361299
                   11         12         13         14         15
    11  O    0.000000
    12  O    2.232908   0.000000
    13  H    5.652309   4.779447   0.000000
    14  H    5.957225   5.975025   2.392834   0.000000
    15  H    0.896804   2.546440   6.269140   6.605356   0.000000
 Stoichiometry    C7H6O2
 Framework group  C1[X(C7H6O2)]
 Deg. of freedom    39
 Full point group                 C1      NOp   1
 Largest Abelian subgroup         C1      NOp   1
 Largest concise Abelian subgroup C1      NOp   1
                         Standard orientation:                         
 ---------------------------------------------------------------------
 Center     Atomic      Atomic             Coordinates (Angstroms)
 Number     Number       Type             X           Y           Z
 ---------------------------------------------------------------------
      1          6           0        0.225031    0.030935   -0.017115
      2          6           0       -0.437916   -1.190945   -0.024878
      3          6           0       -0.504582    1.215931    0.013904
      4          6           0       -1.824166   -1.224860   -0.016550
      5          1           0        0.082322   -2.029974   -0.045514
      6          6           0        1.708792    0.068700   -0.028759
      7          6           0       -1.904707    1.169358    0.031559
      8          1           0       -0.021509    2.080025    0.036445
      9          6           0       -2.551899   -0.053815    0.009372
     10          1           0       -2.299609   -2.085647   -0.031426
     11          8           0        2.335817   -1.040975   -0.021049
     12          8           0        2.288686    1.191380   -0.036738
     13          1           0       -2.418635    2.015223    0.037582
     14          1           0       -3.545635   -0.095588    0.036371
     15          1           0        2.943729   -1.179101    0.623638
 ---------------------------------------------------------------------
 Rotational constants (GHZ):           3.9446702           1.2429870           0.9467749
 Leave Link  202 at Sun Nov 20 17:27:19 2022, MaxMem= 16106127360 cpu:               0.2 elap:               0.0
 (Enter /opt/ap/G16/B01/g16/l301.exe)
 Standard basis: 6-311++G(d,p) (5D, 7F)
 Ernie: Thresh=  0.10000D-02 Tol=  0.10000D-05 Strict=F.
 There are   249 symmetry adapted cartesian basis functions of A   symmetry.
 There are   240 symmetry adapted basis functions of A   symmetry.
   240 basis functions,   378 primitive gaussians,   249 cartesian basis functions
    32 alpha electrons       32 beta electrons
       nuclear repulsion energy       409.6818046319 Hartrees.
 IExCor= 4639 DFT=T Ex+Corr=wB97XD ExCW=0 ScaHFX=  1.000000
 ScaDFX=  1.000000  1.000000  1.000000  1.000000 ScalE2=  1.000000  1.000000
 IRadAn=      5 IRanWt=     -1 IRanGd=            0 ICorTp=0 IEmpDi=121
 HFx  wShort=  0.000000 wLong=  0.200000 cFull=  0.222036 cShort=  0.000000 cLong=  0.777964
 DFx  wShort=  0.000000 wLong=  0.200000 cFull=  0.000000 cShort=  0.000000 cLong=  1.000000
 NAtoms=   15 NActive=   15 NUniq=   15 SFac= 1.00D+00 NAtFMM=   60 NAOKFM=F Big=F
 Integral buffers will be    131072 words long.
 Raffenetti 2 integral format.
 Two-electron integral symmetry is turned on.
 R6Disp:  Grimme-D2 Dispersion energy=       -0.0064320705 Hartrees.
 Nuclear repulsion after empirical dispersion term =      409.6753725614 Hartrees.
 Leave Link  301 at Sun Nov 20 17:27:19 2022, MaxMem= 16106127360 cpu:               1.3 elap:               0.0
 (Enter /opt/ap/G16/B01/g16/l302.exe)
 NPDir=0 NMtPBC=     1 NCelOv=     1 NCel=       1 NClECP=     1 NCelD=      1
         NCelK=      1 NCelE2=     1 NClLst=     1 CellRange=     0.0.
 One-electron integrals computed using PRISM.
 One-electron integral symmetry used in STVInt
 NBasis=   240 RedAO= T EigKep=  1.22D-06  NBF=   240
 NBsUse=   240 1.00D-06 EigRej= -1.00D+00 NBFU=   240
 Precomputing XC quadrature grid using
 IXCGrd= 4 IRadAn=           5 IRanWt=          -1 IRanGd=           0 AccXCQ= 0.00D+00.
 Generated NRdTot=       0 NPtTot=           0 NUsed=           0 NTot=          32
 NSgBfM=   249   249   249   249   249 MxSgAt=    15 MxSgA2=    15.
 Leave Link  302 at Sun Nov 20 17:27:19 2022, MaxMem= 16106127360 cpu:               5.3 elap:               0.2
 (Enter /opt/ap/G16/B01/g16/l303.exe)
 DipDrv:  MaxL=1.
 Leave Link  303 at Sun Nov 20 17:27:19 2022, MaxMem= 16106127360 cpu:               3.5 elap:               0.1
 (Enter /opt/ap/G16/B01/g16/l401.exe)
 ExpMin= 3.60D-02 ExpMax= 8.59D+03 ExpMxC= 1.30D+03 IAcc=3 IRadAn=         5 AccDes= 0.00D+00
 Harris functional with IExCor= 4639 and IRadAn=       5 diagonalized for initial guess.
 HarFok:  IExCor= 4639 AccDes= 0.00D+00 IRadAn=         5 IDoV= 1 UseB2=F ITyADJ=14
 ICtDFT=  3500011 ScaDFX=  1.000000  1.000000  1.000000  1.000000
 FoFCou: FMM=F IPFlag=           0 FMFlag=      100000 FMFlg1=           0
         NFxFlg=           0 DoJE=T BraDBF=F KetDBF=T FulRan=T
         wScrn=  0.000000 ICntrl=       500 IOpCl=  0 I1Cent=   200000004 NGrid=           0
         NMat0=    1 NMatS0=      1 NMatT0=    0 NMatD0=    1 NMtDS0=    0 NMtDT0=    0
 Petite list used in FoFCou.
 Harris En= -403.243895251018    
 JPrj=0 DoOrth=F DoCkMO=F.
 Leave Link  401 at Sun Nov 20 17:27:20 2022, MaxMem= 16106127360 cpu:              13.0 elap:               0.4
 (Enter /opt/ap/G16/B01/g16/l502.exe)
 Integral symmetry usage will be decided dynamically.
 Closed shell SCF:
 Using DIIS extrapolation, IDIIS=  1040.
 NGot= 16106127360 LenX= 16105992971 LenY= 16105930529
 Requested convergence on RMS density matrix=1.00D-08 within 512 cycles.
 Requested convergence on MAX density matrix=1.00D-06.
 Requested convergence on             energy=1.00D-06.
 No special actions if energy rises.
 Fock matrices will be formed incrementally for  20 cycles.

 Cycle   1  Pass 1  IDiag  1:
 FoFJK:  IHMeth= 1 ICntrl=       0 DoSepK=T KAlg= 0 I1Cent=           0 FoldK=F
 IRaf=         1 NMat=       1 IRICut=       1 DoRegI=T DoRafI=F ISym2E= 0 IDoP0=0 IntGTp=1.
 FoFCou: FMM=F IPFlag=           0 FMFlag=      100000 FMFlg1=           0
         NFxFlg=           0 DoJE=T BraDBF=F KetDBF=F FulRan=T
         wScrn=  0.000000 ICntrl=       500 IOpCl=  0 I1Cent=           0 NGrid=           0
         NMat0=    1 NMatS0=      1 NMatT0=    0 NMatD0=    1 NMtDS0=    0 NMtDT0=    0
 Symmetry not used in FoFCou.
 E= -420.622719221862    
 DIIS: error= 5.41D-02 at cycle   1 NSaved=   1.
 NSaved= 1 IEnMin= 1 EnMin= -420.622719221862     IErMin= 1 ErrMin= 5.41D-02
 ErrMax= 5.41D-02  0.00D+00 EMaxC= 1.00D-01 BMatC= 8.57D-01 BMatP= 8.57D-01
 IDIUse=3 WtCom= 4.59D-01 WtEn= 5.41D-01
 Coeff-Com:  0.100D+01
 Coeff-En:   0.100D+01
 Coeff:      0.100D+01
 Gap=     0.425 Goal=   None    Shift=    0.000
 GapD=    0.425 DampG=2.000 DampE=0.500 DampFc=1.0000 IDamp=-1.
 RMSDP=2.95D-02 MaxDP=2.03D+00              OVMax= 1.05D-01

 Cycle   2  Pass 1  IDiag  1:
 RMSU=  1.49D-02    CP:  6.61D-01
 E= -420.695672629850     Delta-E=       -0.072953407987 Rises=F Damp=F
 DIIS: error= 1.08D-02 at cycle   2 NSaved=   2.
 NSaved= 2 IEnMin= 2 EnMin= -420.695672629850     IErMin= 2 ErrMin= 1.08D-02
 ErrMax= 1.08D-02  0.00D+00 EMaxC= 1.00D-01 BMatC= 4.92D-02 BMatP= 8.57D-01
 IDIUse=3 WtCom= 8.92D-01 WtEn= 1.08D-01
 Coeff-Com:  0.126D+00 0.874D+00
 Coeff-En:   0.452D-01 0.955D+00
 Coeff:      0.117D+00 0.883D+00
 Gap=     0.421 Goal=   None    Shift=    0.000
 RMSDP=7.54D-03 MaxDP=4.77D-01 DE=-7.30D-02 OVMax= 7.12D-02

 Cycle   3  Pass 1  IDiag  1:
 RMSU=  5.97D-03    CP:  6.39D-01  7.13D-01
 E= -420.712656971233     Delta-E=       -0.016984341383 Rises=F Damp=F
 DIIS: error= 9.24D-03 at cycle   3 NSaved=   3.
 NSaved= 3 IEnMin= 3 EnMin= -420.712656971233     IErMin= 3 ErrMin= 9.24D-03
 ErrMax= 9.24D-03  0.00D+00 EMaxC= 1.00D-01 BMatC= 2.71D-02 BMatP= 4.92D-02
 IDIUse=3 WtCom= 9.08D-01 WtEn= 9.24D-02
 Coeff-Com:  0.246D-01 0.433D+00 0.542D+00
 Coeff-En:   0.000D+00 0.353D+00 0.647D+00
 Coeff:      0.223D-01 0.426D+00 0.552D+00
 Gap=     0.359 Goal=   None    Shift=    0.000
 RMSDP=3.54D-03 MaxDP=2.37D-01 DE=-1.70D-02 OVMax= 3.81D-02

 Cycle   4  Pass 1  IDiag  1:
 RMSU=  1.39D-03    CP:  6.25D-01  8.69D-01  6.61D-01
 E= -420.733858712436     Delta-E=       -0.021201741203 Rises=F Damp=F
 DIIS: error= 1.96D-03 at cycle   4 NSaved=   4.
 NSaved= 4 IEnMin= 4 EnMin= -420.733858712436     IErMin= 4 ErrMin= 1.96D-03
 ErrMax= 1.96D-03  0.00D+00 EMaxC= 1.00D-01 BMatC= 1.15D-03 BMatP= 2.71D-02
 IDIUse=3 WtCom= 9.80D-01 WtEn= 1.96D-02
 Coeff-Com:  0.101D-01 0.216D+00 0.303D+00 0.470D+00
 Coeff-En:   0.000D+00 0.000D+00 0.000D+00 0.100D+01
 Coeff:      0.989D-02 0.212D+00 0.298D+00 0.481D+00
 Gap=     0.344 Goal=   None    Shift=    0.000
 RMSDP=9.02D-04 MaxDP=6.82D-02 DE=-2.12D-02 OVMax= 8.90D-03

 Cycle   5  Pass 1  IDiag  1:
 RMSU=  6.46D-04    CP:  6.19D-01  8.55D-01  7.02D-01  7.40D-01
 E= -420.734642167668     Delta-E=       -0.000783455231 Rises=F Damp=F
 DIIS: error= 4.22D-04 at cycle   5 NSaved=   5.
 NSaved= 5 IEnMin= 5 EnMin= -420.734642167668     IErMin= 5 ErrMin= 4.22D-04
 ErrMax= 4.22D-04  0.00D+00 EMaxC= 1.00D-01 BMatC= 4.85D-05 BMatP= 1.15D-03
 IDIUse=3 WtCom= 9.96D-01 WtEn= 4.22D-03
 Coeff-Com:  0.193D-03 0.124D-01 0.268D-01 0.173D+00 0.787D+00
 Coeff-En:   0.000D+00 0.000D+00 0.000D+00 0.000D+00 0.100D+01
 Coeff:      0.192D-03 0.123D-01 0.267D-01 0.172D+00 0.788D+00
 Gap=     0.344 Goal=   None    Shift=    0.000
 RMSDP=2.07D-04 MaxDP=1.15D-02 DE=-7.83D-04 OVMax= 2.30D-03

 Cycle   6  Pass 1  IDiag  1:
 RMSU=  1.22D-04    CP:  6.18D-01  8.58D-01  7.19D-01  7.51D-01  1.05D+00
 E= -420.734680445310     Delta-E=       -0.000038277642 Rises=F Damp=F
 DIIS: error= 1.60D-04 at cycle   6 NSaved=   6.
 NSaved= 6 IEnMin= 6 EnMin= -420.734680445310     IErMin= 6 ErrMin= 1.60D-04
 ErrMax= 1.60D-04  0.00D+00 EMaxC= 1.00D-01 BMatC= 7.11D-06 BMatP= 4.85D-05
 IDIUse=3 WtCom= 9.98D-01 WtEn= 1.60D-03
 Coeff-Com: -0.101D-02-0.178D-01-0.202D-01 0.218D-01 0.351D+00 0.666D+00
 Coeff-En:   0.000D+00 0.000D+00 0.000D+00 0.000D+00 0.000D+00 0.100D+01
 Coeff:     -0.101D-02-0.178D-01-0.201D-01 0.217D-01 0.351D+00 0.666D+00
 Gap=     0.344 Goal=   None    Shift=    0.000
 RMSDP=1.54D-04 MaxDP=1.24D-02 DE=-3.83D-05 OVMax= 8.46D-04

 Cycle   7  Pass 1  IDiag  1:
 RMSU=  3.76D-05    CP:  6.16D-01  8.56D-01  7.29D-01  7.56D-01  1.15D+00
                    CP:  1.07D+00
 E= -420.734687332609     Delta-E=       -0.000006887299 Rises=F Damp=F
 DIIS: error= 7.13D-05 at cycle   7 NSaved=   7.
 NSaved= 7 IEnMin= 7 EnMin= -420.734687332609     IErMin= 7 ErrMin= 7.13D-05
 ErrMax= 7.13D-05  0.00D+00 EMaxC= 1.00D-01 BMatC= 3.03D-07 BMatP= 7.11D-06
 IDIUse=1 WtCom= 1.00D+00 WtEn= 0.00D+00
 Coeff-Com: -0.260D-03-0.596D-02-0.773D-02-0.145D-01 0.996D-02 0.146D+00
 Coeff-Com:  0.873D+00
 Coeff:     -0.260D-03-0.596D-02-0.773D-02-0.145D-01 0.996D-02 0.146D+00
 Coeff:      0.873D+00
 Gap=     0.344 Goal=   None    Shift=    0.000
 RMSDP=4.27D-05 MaxDP=2.35D-03 DE=-6.89D-06 OVMax= 3.54D-04

 Cycle   8  Pass 1  IDiag  1:
 RMSU=  1.22D-05    CP:  6.16D-01  8.56D-01  7.32D-01  7.54D-01  1.20D+00
                    CP:  1.11D+00  1.03D+00
 E= -420.734687910811     Delta-E=       -0.000000578202 Rises=F Damp=F
 DIIS: error= 1.61D-05 at cycle   8 NSaved=   8.
 NSaved= 8 IEnMin= 8 EnMin= -420.734687910811     IErMin= 8 ErrMin= 1.61D-05
 ErrMax= 1.61D-05  0.00D+00 EMaxC= 1.00D-01 BMatC= 4.56D-08 BMatP= 3.03D-07
 IDIUse=1 WtCom= 1.00D+00 WtEn= 0.00D+00
 Coeff-Com:  0.244D-04 0.101D-03-0.136D-03-0.774D-02-0.363D-01-0.334D-01
 Coeff-Com:  0.263D+00 0.814D+00
 Coeff:      0.244D-04 0.101D-03-0.136D-03-0.774D-02-0.363D-01-0.334D-01
 Coeff:      0.263D+00 0.814D+00
 Gap=     0.344 Goal=   None    Shift=    0.000
 RMSDP=1.50D-05 MaxDP=8.47D-04 DE=-5.78D-07 OVMax= 1.34D-04

 Cycle   9  Pass 1  IDiag  1:
 RMSU=  5.49D-06    CP:  6.16D-01  8.56D-01  7.32D-01  7.50D-01  1.22D+00
                    CP:  1.13D+00  1.09D+00  1.28D+00
 E= -420.734687989803     Delta-E=       -0.000000078992 Rises=F Damp=F
 DIIS: error= 1.07D-05 at cycle   9 NSaved=   9.
 NSaved= 9 IEnMin= 9 EnMin= -420.734687989803     IErMin= 9 ErrMin= 1.07D-05
 ErrMax= 1.07D-05  0.00D+00 EMaxC= 1.00D-01 BMatC= 6.17D-09 BMatP= 4.56D-08
 IDIUse=1 WtCom= 1.00D+00 WtEn= 0.00D+00
 Coeff-Com:  0.420D-04 0.805D-03 0.946D-03-0.993D-03-0.124D-01-0.306D-01
 Coeff-Com: -0.164D-01 0.275D+00 0.783D+00
 Coeff:      0.420D-04 0.805D-03 0.946D-03-0.993D-03-0.124D-01-0.306D-01
 Coeff:     -0.164D-01 0.275D+00 0.783D+00
 Gap=     0.344 Goal=   None    Shift=    0.000
 RMSDP=5.33D-06 MaxDP=2.58D-04 DE=-7.90D-08 OVMax= 5.04D-05

 Cycle  10  Pass 1  IDiag  1:
 RMSU=  1.73D-06    CP:  6.16D-01  8.56D-01  7.32D-01  7.48D-01  1.22D+00
                    CP:  1.14D+00  1.11D+00  1.38D+00  1.19D+00
 E= -420.734687999796     Delta-E=       -0.000000009993 Rises=F Damp=F
 DIIS: error= 1.45D-06 at cycle  10 NSaved=  10.
 NSaved=10 IEnMin=10 EnMin= -420.734687999796     IErMin=10 ErrMin= 1.45D-06
 ErrMax= 1.45D-06  0.00D+00 EMaxC= 1.00D-01 BMatC= 8.04D-10 BMatP= 6.17D-09
 IDIUse=1 WtCom= 1.00D+00 WtEn= 0.00D+00
 Coeff-Com:  0.946D-05 0.204D-03 0.258D-03 0.419D-03 0.747D-03-0.602D-02
 Coeff-Com: -0.320D-01-0.117D-01 0.250D+00 0.798D+00
 Coeff:      0.946D-05 0.204D-03 0.258D-03 0.419D-03 0.747D-03-0.602D-02
 Coeff:     -0.320D-01-0.117D-01 0.250D+00 0.798D+00
 Gap=     0.344 Goal=   None    Shift=    0.000
 RMSDP=1.81D-06 MaxDP=1.32D-04 DE=-9.99D-09 OVMax= 1.85D-05

 Cycle  11  Pass 1  IDiag  1:
 RMSU=  4.68D-07    CP:  6.16D-01  8.56D-01  7.32D-01  7.47D-01  1.22D+00
                    CP:  1.13D+00  1.11D+00  1.44D+00  1.31D+00  1.15D+00
 E= -420.734688001095     Delta-E=       -0.000000001299 Rises=F Damp=F
 DIIS: error= 5.41D-07 at cycle  11 NSaved=  11.
 NSaved=11 IEnMin=11 EnMin= -420.734688001095     IErMin=11 ErrMin= 5.41D-07
 ErrMax= 5.41D-07  0.00D+00 EMaxC= 1.00D-01 BMatC= 1.11D-10 BMatP= 8.04D-10
 IDIUse=1 WtCom= 1.00D+00 WtEn= 0.00D+00
 Coeff-Com: -0.214D-05-0.230D-04-0.164D-04 0.308D-03 0.210D-02 0.163D-02
 Coeff-Com: -0.843D-02-0.467D-01-0.275D-01 0.267D+00 0.812D+00
 Coeff:     -0.214D-05-0.230D-04-0.164D-04 0.308D-03 0.210D-02 0.163D-02
 Coeff:     -0.843D-02-0.467D-01-0.275D-01 0.267D+00 0.812D+00
 Gap=     0.344 Goal=   None    Shift=    0.000
 RMSDP=7.58D-07 MaxDP=4.60D-05 DE=-1.30D-09 OVMax= 9.94D-06

 Cycle  12  Pass 1  IDiag  1:
 RMSU=  2.12D-07    CP:  6.16D-01  8.56D-01  7.32D-01  7.47D-01  1.22D+00
                    CP:  1.13D+00  1.11D+00  1.45D+00  1.35D+00  1.33D+00
                    CP:  1.26D+00
 E= -420.734688001313     Delta-E=       -0.000000000218 Rises=F Damp=F
 DIIS: error= 1.97D-07 at cycle  12 NSaved=  12.
 NSaved=12 IEnMin=12 EnMin= -420.734688001313     IErMin=12 ErrMin= 1.97D-07
 ErrMax= 1.97D-07  0.00D+00 EMaxC= 1.00D-01 BMatC= 1.08D-11 BMatP= 1.11D-10
 IDIUse=1 WtCom= 1.00D+00 WtEn= 0.00D+00
 Coeff-Com: -0.131D-05-0.226D-04-0.250D-04 0.394D-04 0.435D-03 0.783D-03
 Coeff-Com:  0.145D-02-0.988D-02-0.291D-01-0.115D-01 0.193D+00 0.854D+00
 Coeff:     -0.131D-05-0.226D-04-0.250D-04 0.394D-04 0.435D-03 0.783D-03
 Coeff:      0.145D-02-0.988D-02-0.291D-01-0.115D-01 0.193D+00 0.854D+00
 Gap=     0.344 Goal=   None    Shift=    0.000
 RMSDP=1.26D-07 MaxDP=6.72D-06 DE=-2.18D-10 OVMax= 4.57D-06

 Cycle  13  Pass 1  IDiag  1:
 RMSU=  6.48D-08    CP:  6.16D-01  8.56D-01  7.32D-01  7.47D-01  1.22D+00
                    CP:  1.13D+00  1.11D+00  1.45D+00  1.36D+00  1.35D+00
                    CP:  1.33D+00  1.05D+00
 E= -420.734688001348     Delta-E=       -0.000000000035 Rises=F Damp=F
 DIIS: error= 8.22D-08 at cycle  13 NSaved=  13.
 NSaved=13 IEnMin=13 EnMin= -420.734688001348     IErMin=13 ErrMin= 8.22D-08
 ErrMax= 8.22D-08  0.00D+00 EMaxC= 1.00D-01 BMatC= 1.97D-12 BMatP= 1.08D-11
 IDIUse=1 WtCom= 1.00D+00 WtEn= 0.00D+00
 Coeff-Com:  0.124D-06-0.317D-05-0.627D-05-0.585D-04-0.346D-03-0.169D-03
 Coeff-Com:  0.224D-02 0.734D-02-0.127D-02-0.598D-01-0.134D+00 0.184D+00
 Coeff-Com:  0.100D+01
 Coeff:      0.124D-06-0.317D-05-0.627D-05-0.585D-04-0.346D-03-0.169D-03
 Coeff:      0.224D-02 0.734D-02-0.127D-02-0.598D-01-0.134D+00 0.184D+00
 Coeff:      0.100D+01
 Gap=     0.344 Goal=   None    Shift=    0.000
 RMSDP=7.04D-08 MaxDP=5.24D-06 DE=-3.54D-11 OVMax= 3.35D-06

 Cycle  14  Pass 1  IDiag  1:
 RMSU=  2.67D-08    CP:  6.16D-01  8.56D-01  7.32D-01  7.47D-01  1.22D+00
                    CP:  1.13D+00  1.11D+00  1.45D+00  1.36D+00  1.36D+00
                    CP:  1.39D+00  1.18D+00  1.40D+00
 E= -420.734688001356     Delta-E=       -0.000000000008 Rises=F Damp=F
 DIIS: error= 4.08D-08 at cycle  14 NSaved=  14.
 NSaved=14 IEnMin=14 EnMin= -420.734688001356     IErMin=14 ErrMin= 4.08D-08
 ErrMax= 4.08D-08  0.00D+00 EMaxC= 1.00D-01 BMatC= 2.13D-13 BMatP= 1.97D-12
 IDIUse=1 WtCom= 1.00D+00 WtEn= 0.00D+00
 Coeff-Com:  0.136D-06 0.263D-05 0.299D-05-0.729D-05-0.828D-04-0.724D-04
 Coeff-Com: -0.498D-04 0.167D-02 0.308D-02-0.317D-02-0.288D-01-0.903D-01
 Coeff-Com:  0.466D-01 0.107D+01
 Coeff:      0.136D-06 0.263D-05 0.299D-05-0.729D-05-0.828D-04-0.724D-04
 Coeff:     -0.498D-04 0.167D-02 0.308D-02-0.317D-02-0.288D-01-0.903D-01
 Coeff:      0.466D-01 0.107D+01
 Gap=     0.344 Goal=   None    Shift=    0.000
 RMSDP=2.67D-08 MaxDP=1.15D-06 DE=-8.19D-12 OVMax= 1.27D-06

 Cycle  15  Pass 1  IDiag  1:
 RMSU=  1.02D-08    CP:  6.16D-01  8.56D-01  7.32D-01  7.47D-01  1.22D+00
                    CP:  1.13D+00  1.11D+00  1.45D+00  1.36D+00  1.36D+00
                    CP:  1.38D+00  1.17D+00  1.63D+00  1.38D+00
 E= -420.734688001355     Delta-E=        0.000000000002 Rises=F Damp=F
 DIIS: error= 1.89D-08 at cycle  15 NSaved=  15.
 NSaved=15 IEnMin=14 EnMin= -420.734688001356     IErMin=15 ErrMin= 1.89D-08
 ErrMax= 1.89D-08  0.00D+00 EMaxC= 1.00D-01 BMatC= 5.38D-14 BMatP= 2.13D-13
 IDIUse=1 WtCom= 1.00D+00 WtEn= 0.00D+00
 Coeff-Com:  0.256D-07 0.137D-05 0.201D-05 0.629D-05 0.212D-04 0.106D-04
 Coeff-Com: -0.356D-03-0.466D-03 0.121D-02 0.795D-02 0.104D-01-0.561D-01
 Coeff-Com: -0.141D+00 0.380D+00 0.799D+00
 Coeff:      0.256D-07 0.137D-05 0.201D-05 0.629D-05 0.212D-04 0.106D-04
 Coeff:     -0.356D-03-0.466D-03 0.121D-02 0.795D-02 0.104D-01-0.561D-01
 Coeff:     -0.141D+00 0.380D+00 0.799D+00
 Gap=     0.344 Goal=   None    Shift=    0.000
 RMSDP=8.87D-09 MaxDP=4.75D-07 DE= 1.93D-12 OVMax= 3.60D-07

 SCF Done:  E(RwB97XD) =  -420.734688001     A.U. after   15 cycles
            NFock= 15  Conv=0.89D-08     -V/T= 2.0014
 KE= 4.201418763225D+02 PE=-1.802882023932D+03 EE= 5.523300870465D+02
 Leave Link  502 at Sun Nov 20 17:27:33 2022, MaxMem= 16106127360 cpu:             408.5 elap:              12.8
 (Enter /opt/ap/G16/B01/g16/l601.exe)
 Copying SCF densities to generalized density rwf, IOpCl= 0 IROHF=0.

 **********************************************************************

            Population analysis using the SCF Density.

 **********************************************************************

 Orbital symmetries:
       Occupied  (A) (A) (A) (A) (A) (A) (A) (A) (A) (A) (A) (A)
                 (A) (A) (A) (A) (A) (A) (A) (A) (A) (A) (A) (A)
                 (A) (A) (A) (A) (A) (A) (A) (A)
       Virtual   (A) (A) (A) (A) (A) (A) (A) (A) (A) (A) (A) (A)
                 (A) (A) (A) (A) (A) (A) (A) (A) (A) (A) (A) (A)
                 (A) (A) (A) (A) (A) (A) (A) (A) (A) (A) (A) (A)
                 (A) (A) (A) (A) (A) (A) (A) (A) (A) (A) (A) (A)
                 (A) (A) (A) (A) (A) (A) (A) (A) (A) (A) (A) (A)
                 (A) (A) (A) (A) (A) (A) (A) (A) (A) (A) (A) (A)
                 (A) (A) (A) (A) (A) (A) (A) (A) (A) (A) (A) (A)
                 (A) (A) (A) (A) (A) (A) (A) (A) (A) (A) (A) (A)
                 (A) (A) (A) (A) (A) (A) (A) (A) (A) (A) (A) (A)
                 (A) (A) (A) (A) (A) (A) (A) (A) (A) (A) (A) (A)
                 (A) (A) (A) (A) (A) (A) (A) (A) (A) (A) (A) (A)
                 (A) (A) (A) (A) (A) (A) (A) (A) (A) (A) (A) (A)
                 (A) (A) (A) (A) (A) (A) (A) (A) (A) (A) (A) (A)
                 (A) (A) (A) (A) (A) (A) (A) (A) (A) (A) (A) (A)
                 (A) (A) (A) (A) (A) (A) (A) (A) (A) (A) (A) (A)
                 (A) (A) (A) (A) (A) (A) (A) (A) (A) (A) (A) (A)
                 (A) (A) (A) (A) (A) (A) (A) (A) (A) (A) (A) (A)
                 (A) (A) (A) (A)
 The electronic state is 1-A.
 Alpha  occ. eigenvalues --  -19.30568 -19.23235 -10.43185 -10.30936 -10.29404
 Alpha  occ. eigenvalues --  -10.29351 -10.29292 -10.29071 -10.28827  -1.25243
 Alpha  occ. eigenvalues --   -1.10813  -0.98123  -0.88757  -0.87091  -0.80032
 Alpha  occ. eigenvalues --   -0.73472  -0.72230  -0.66160  -0.61106  -0.58540
 Alpha  occ. eigenvalues --   -0.56717  -0.56078  -0.54000  -0.53556  -0.48220
 Alpha  occ. eigenvalues --   -0.47197  -0.45372  -0.44268  -0.41606  -0.36194
 Alpha  occ. eigenvalues --   -0.34735  -0.34391
 Alpha virt. eigenvalues --    0.00044   0.03573   0.04187   0.04470   0.05247
 Alpha virt. eigenvalues --    0.06493   0.07779   0.08748   0.10133   0.10686
 Alpha virt. eigenvalues --    0.11791   0.12883   0.13277   0.14164   0.14562
 Alpha virt. eigenvalues --    0.15987   0.16321   0.16933   0.17207   0.17870
 Alpha virt. eigenvalues --    0.18227   0.19340   0.19932   0.20151   0.20419
 Alpha virt. eigenvalues --    0.21155   0.21466   0.21719   0.23284   0.24149
 Alpha virt. eigenvalues --    0.25556   0.26181   0.27011   0.27159   0.27906
 Alpha virt. eigenvalues --    0.29655   0.29957   0.30697   0.30966   0.32293
 Alpha virt. eigenvalues --    0.32515   0.33800   0.34630   0.35497   0.35830
 Alpha virt. eigenvalues --    0.36186   0.37236   0.38254   0.39230   0.40034
 Alpha virt. eigenvalues --    0.41637   0.41908   0.42548   0.44038   0.46165
 Alpha virt. eigenvalues --    0.46959   0.49674   0.53411   0.54631   0.57759
 Alpha virt. eigenvalues --    0.59112   0.60300   0.61917   0.63659   0.63731
 Alpha virt. eigenvalues --    0.64311   0.64991   0.65896   0.66241   0.69180
 Alpha virt. eigenvalues --    0.70412   0.72667   0.73957   0.74318   0.75271
 Alpha virt. eigenvalues --    0.76642   0.80844   0.82404   0.83407   0.86158
 Alpha virt. eigenvalues --    0.88491   0.90264   0.92745   0.93659   0.94677
 Alpha virt. eigenvalues --    0.96252   0.96657   0.97770   0.99753   1.00452
 Alpha virt. eigenvalues --    1.03747   1.06487   1.08006   1.09692   1.10741
 Alpha virt. eigenvalues --    1.13934   1.14891   1.16197   1.16625   1.19044
 Alpha virt. eigenvalues --    1.21192   1.21668   1.24238   1.27875   1.29143
 Alpha virt. eigenvalues --    1.34295   1.42021   1.44529   1.45188   1.53804
 Alpha virt. eigenvalues --    1.57712   1.59066   1.60669   1.60849   1.62159
 Alpha virt. eigenvalues --    1.63193   1.66391   1.66890   1.67802   1.74800
 Alpha virt. eigenvalues --    1.74931   1.77046   1.79288   1.83022   1.87221
 Alpha virt. eigenvalues --    1.88330   1.90003   1.91816   1.93323   2.00110
 Alpha virt. eigenvalues --    2.00298   2.02065   2.03387   2.04342   2.05062
 Alpha virt. eigenvalues --    2.07696   2.09926   2.15739   2.17871   2.19861
 Alpha virt. eigenvalues --    2.23042   2.26239   2.29278   2.42843   2.46080
 Alpha virt. eigenvalues --    2.51837   2.53072   2.54345   2.57888   2.59191
 Alpha virt. eigenvalues --    2.70928   2.72425   2.75595   2.77952   2.80977
 Alpha virt. eigenvalues --    2.81680   2.83037   2.88169   2.89727   2.90449
 Alpha virt. eigenvalues --    2.90658   2.91734   2.96253   2.99613   3.00112
 Alpha virt. eigenvalues --    3.04413   3.05703   3.06160   3.15818   3.18651
 Alpha virt. eigenvalues --    3.18765   3.22647   3.28366   3.31744   3.38536
 Alpha virt. eigenvalues --    3.42291   3.46099   3.48770   3.51028   3.63073
 Alpha virt. eigenvalues --    3.66395   3.68464   3.74045   3.84419   3.87684
 Alpha virt. eigenvalues --    3.99988   4.17539   4.28360   4.30663   4.36632
 Alpha virt. eigenvalues --    4.40252   4.45024   4.94834   5.14761   5.15977
 Alpha virt. eigenvalues --    5.30391   5.45939   5.82716   6.07607  23.83855
 Alpha virt. eigenvalues --   23.94841  24.14101  24.21284  24.28272  24.30336
 Alpha virt. eigenvalues --   24.41752  50.04762  50.16482
          Condensed to atoms (all electrons):
               1          2          3          4          5          6
     1  C   10.006760  -2.547182  -1.923472   1.790115  -0.024303  -1.876154
     2  C   -2.547182  15.143254  -1.824504  -4.483286   0.660825  -0.612806
     3  C   -1.923472  -1.824504  13.421508   0.002143  -0.052262  -0.527660
     4  C    1.790115  -4.483286   0.002143   8.246788  -0.139953  -0.056536
     5  H   -0.024303   0.660825  -0.052262  -0.139953   0.487858  -0.119325
     6  C   -1.876154  -0.612806  -0.527660  -0.056536  -0.119325   8.132108
     7  C    1.078752  -0.283117  -3.957488   0.719469   0.024158   0.095410
     8  H   -0.054453   0.013429   0.560159  -0.009902  -0.000393  -0.047707
     9  C   -1.164062   1.118004   1.166898  -0.613115   0.020515  -0.026061
    10  H    0.033744  -0.120167   0.024639   0.431248  -0.011885   0.014347
    11  O   -0.233203  -0.208035  -0.020284   0.049822  -0.044423   0.466116
    12  O   -0.221380  -0.083640  -0.069296   0.051273  -0.005408   0.611029
    13  H    0.035092   0.021509  -0.132069  -0.008958   0.000629   0.009092
    14  H    0.010571   0.004930   0.006488  -0.045359   0.000613  -0.009250
    15  H   -0.013316   0.008013  -0.007153  -0.014373   0.000693   0.017393
               7          8          9         10         11         12
     1  C    1.078752  -0.054453  -1.164062   0.033744  -0.233203  -0.221380
     2  C   -0.283117   0.013429   1.118004  -0.120167  -0.208035  -0.083640
     3  C   -3.957488   0.560159   1.166898   0.024639  -0.020284  -0.069296
     4  C    0.719469  -0.009902  -0.613115   0.431248   0.049822   0.051273
     5  H    0.024158  -0.000393   0.020515  -0.011885  -0.044423  -0.005408
     6  C    0.095410  -0.047707  -0.026061   0.014347   0.466116   0.611029
     7  C    8.550590  -0.114299  -0.679278  -0.013906   0.053366   0.129497
     8  H   -0.114299   0.432241   0.022690   0.000555  -0.004148  -0.006423
     9  C   -0.679278   0.022690   6.311739  -0.034044  -0.031119  -0.018927
    10  H   -0.013906   0.000555  -0.034044   0.471214   0.003159   0.000559
    11  O    0.053366  -0.004148  -0.031119   0.003159   7.993198  -0.122136
    12  O    0.129497  -0.006423  -0.018927   0.000559  -0.122136   8.042242
    13  H    0.439198  -0.008993  -0.027332  -0.001475   0.000917   0.001521
    14  H   -0.035233   0.000433   0.422230  -0.006529  -0.000454  -0.000309
    15  H    0.009789  -0.000542  -0.002287  -0.000127   0.293977   0.001635
              13         14         15
     1  C    0.035092   0.010571  -0.013316
     2  C    0.021509   0.004930   0.008013
     3  C   -0.132069   0.006488  -0.007153
     4  C   -0.008958  -0.045359  -0.014373
     5  H    0.000629   0.000613   0.000693
     6  C    0.009092  -0.009250   0.017393
     7  C    0.439198  -0.035233   0.009789
     8  H   -0.008993   0.000433  -0.000542
     9  C   -0.027332   0.422230  -0.002287
    10  H   -0.001475  -0.006529  -0.000127
    11  O    0.000917  -0.000454   0.293977
    12  O    0.001521  -0.000309   0.001635
    13  H    0.463317  -0.005774   0.000100
    14  H   -0.005774   0.469828  -0.000057
    15  H    0.000100  -0.000057   0.384535
 Mulliken charges:
               1
     1  C    1.102493
     2  C   -0.807227
     3  C   -0.667648
     4  C    0.080625
     5  H    0.202662
     6  C   -0.069996
     7  C   -0.016907
     8  H    0.217353
     9  C   -0.465852
    10  H    0.208668
    11  O   -0.196754
    12  O   -0.310237
    13  H    0.213226
    14  H    0.187872
    15  H    0.321721
 Sum of Mulliken charges =  -0.00000
 Mulliken charges with hydrogens summed into heavy atoms:
               1
     1  C    1.102493
     2  C   -0.604565
     3  C   -0.450294
     4  C    0.289294
     6  C   -0.069996
     7  C    0.196319
     9  C   -0.277980
    11  O    0.124967
    12  O   -0.310237
 Electronic spatial extent (au):  <R**2>=           1155.9419
 Charge=              0.0000 electrons
 Dipole moment (field-independent basis, Debye):
    X=             -1.8937    Y=             -2.3831    Z=              1.2213  Tot=              3.2797
 Quadrupole moment (field-independent basis, Debye-Ang):
   XX=            -47.0943   YY=            -49.2314   ZZ=            -53.0677
   XY=             -7.8618   XZ=              4.0129   YZ=             -1.4376
 Traceless Quadrupole moment (field-independent basis, Debye-Ang):
   XX=              2.7035   YY=              0.5664   ZZ=             -3.2699
   XY=             -7.8618   XZ=              4.0129   YZ=             -1.4376
 Octapole moment (field-independent basis, Debye-Ang**2):
  XXX=              2.4889  YYY=             -5.0710  ZZZ=              1.0105  XYY=             -5.8308
  XXY=            -23.9387  XXZ=             13.0766  XZZ=             14.1975  YZZ=             -1.5450
  YYZ=              2.2287  XYZ=             -5.2050
 Hexadecapole moment (field-independent basis, Debye-Ang**3):
 XXXX=           -947.4738 YYYY=           -357.9699 ZZZZ=            -58.7304 XXXY=            -75.9087
 XXXZ=             39.5160 YYYX=            -18.5660 YYYZ=             -2.5910 ZZZX=              3.9982
 ZZZY=             -2.0020 XXYY=           -231.0043 XXZZ=           -185.2569 YYZZ=            -77.6466
 XXYZ=            -15.5450 YYXZ=              7.3304 ZZXY=             -5.1981
 N-N= 4.096753725614D+02 E-N=-1.802882024133D+03  KE= 4.201418763225D+02
 No NMR shielding tensors so no spin-rotation constants.
 Leave Link  601 at Sun Nov 20 17:27:33 2022, MaxMem= 16106127360 cpu:               3.3 elap:               0.1
 (Enter /opt/ap/G16/B01/g16/l9999.exe)
 1\1\GINC-N04\SP\RwB97XD\6-311++G(d,p)\C7H6O2\ROOT\20-Nov-2022\0\\#P wB
 97XD/6-311++G(d,p) scf=maxcycle=512\\_conf029.gjf nmol_natom 1_15\\0,1
 \C\C,1,1.39016191\C,1,1.39194539,2,119.895942\C,2,1.38669027,1,119.880
 75721,3,0.70825972,0\H,2,0.98744251,1,119.71654057,3,-179.90726164,0\C
 ,1,1.48428757,2,119.93615286,4,-179.87772406,0\C,3,1.40101108,1,119.72
 36454,2,-0.26266839,0\H,3,0.9902154,1,119.1886159,2,178.85397616,0\C,4
 ,1.37899003,2,120.45785903,1,-0.48041454,0\H,4,0.9834739,2,120.3044270
 6,1,179.36166981,0\O,6,1.27459751,1,118.00615353,2,-1.25976832,0\O,6,1
 .26362572,1,118.77715367,2,179.20603801,0\H,7,0.98977053,3,119.3786157
 8,1,-178.93545741,0\H,9,0.99498061,4,119.46722635,2,-178.58826714,0\H,
 11,0.89680392,6,118.15823763,1,-125.,0\\Version=ES64L-G16RevB.01\State
 =1-A\HF=-420.734688\RMSD=8.869e-09\Dipole=0.2186361,-0.4822937,1.17667
 8\Quadrupole=6.4026949,-2.2904969,-4.112198,3.3450185,-2.5133359,0.436
 3196\PG=C01 [X(C7H6O2)]\\@


 HICKORY, DICKORY, DOCK
 TWO MICE RAN UP THE CLOCK
 THE CLOCK STRUCK ONE...
 THE OTHER ESCAPED WITH MINOR INJURIES.
 Job cpu time:       0 days  0 hours  7 minutes 23.5 seconds.
 Elapsed time:       0 days  0 hours  0 minutes 14.0 seconds.
 File lengths (MBytes):  RWF=     35 Int=      0 D2E=      0 Chk=      4 Scr=      1
 Normal termination of Gaussian 16 at Sun Nov 20 17:27:33 2022.
