 Entering Gaussian System, Link 0=g16
 Input=_conf012.gjf
 Output=_conf012.log
 Initial command:
 /opt/ap/G16/B01/g16/l1.exe "/tmp2/scr/Gau-6225.inp" -scrdir="/tmp2/scr/"
 Entering Link 1 = /opt/ap/G16/B01/g16/l1.exe PID=      6226.
  
 Copyright (c) 1988-2017, Gaussian, Inc.  All Rights Reserved.
  
 This is part of the Gaussian(R) 16 program.  It is based on
 the Gaussian(R) 09 system (copyright 2009, Gaussian, Inc.),
 the Gaussian(R) 03 system (copyright 2003, Gaussian, Inc.),
 the Gaussian(R) 98 system (copyright 1998, Gaussian, Inc.),
 the Gaussian(R) 94 system (copyright 1995, Gaussian, Inc.),
 the Gaussian 92(TM) system (copyright 1992, Gaussian, Inc.),
 the Gaussian 90(TM) system (copyright 1990, Gaussian, Inc.),
 the Gaussian 88(TM) system (copyright 1988, Gaussian, Inc.),
 the Gaussian 86(TM) system (copyright 1986, Carnegie Mellon
 University), and the Gaussian 82(TM) system (copyright 1983,
 Carnegie Mellon University). Gaussian is a federally registered
 trademark of Gaussian, Inc.
  
 This software contains proprietary and confidential information,
 including trade secrets, belonging to Gaussian, Inc.
  
 This software is provided under written license and may be
 used, copied, transmitted, or stored only in accord with that
 written license.
  
 The following legend is applicable only to US Government
 contracts under FAR:
  
                    RESTRICTED RIGHTS LEGEND
  
 Use, reproduction and disclosure by the US Government is
 subject to restrictions as set forth in subparagraphs (a)
 and (c) of the Commercial Computer Software - Restricted
 Rights clause in FAR 52.227-19.
  
 Gaussian, Inc.
 340 Quinnipiac St., Bldg. 40, Wallingford CT 06492
  
  
 ---------------------------------------------------------------
 Warning -- This program may not be used in any manner that
 competes with the business of Gaussian, Inc. or will provide
 assistance to any competitor of Gaussian, Inc.  The licensee
 of this program is prohibited from giving any competitor of
 Gaussian, Inc. access to this program.  By using this program,
 the user acknowledges that Gaussian, Inc. is engaged in the
 business of creating and licensing software in the field of
 computational chemistry and represents and warrants to the
 licensee that it is not a competitor of Gaussian, Inc. and that
 it will not use this program in any manner prohibited above.
 ---------------------------------------------------------------
  

 Cite this work as:
 Gaussian 16, Revision B.01,
 M. J. Frisch, G. W. Trucks, H. B. Schlegel, G. E. Scuseria, 
 M. A. Robb, J. R. Cheeseman, G. Scalmani, V. Barone, 
 G. A. Petersson, H. Nakatsuji, X. Li, M. Caricato, A. V. Marenich, 
 J. Bloino, B. G. Janesko, R. Gomperts, B. Mennucci, H. P. Hratchian, 
 J. V. Ortiz, A. F. Izmaylov, J. L. Sonnenberg, D. Williams-Young, 
 F. Ding, F. Lipparini, F. Egidi, J. Goings, B. Peng, A. Petrone, 
 T. Henderson, D. Ranasinghe, V. G. Zakrzewski, J. Gao, N. Rega, 
 G. Zheng, W. Liang, M. Hada, M. Ehara, K. Toyota, R. Fukuda, 
 J. Hasegawa, M. Ishida, T. Nakajima, Y. Honda, O. Kitao, H. Nakai, 
 T. Vreven, K. Throssell, J. A. Montgomery, Jr., J. E. Peralta, 
 F. Ogliaro, M. J. Bearpark, J. J. Heyd, E. N. Brothers, K. N. Kudin, 
 V. N. Staroverov, T. A. Keith, R. Kobayashi, J. Normand, 
 K. Raghavachari, A. P. Rendell, J. C. Burant, S. S. Iyengar, 
 J. Tomasi, M. Cossi, J. M. Millam, M. Klene, C. Adamo, R. Cammi, 
 J. W. Ochterski, R. L. Martin, K. Morokuma, O. Farkas, 
 J. B. Foresman, and D. J. Fox, Gaussian, Inc., Wallingford CT, 2016.
 
 ******************************************
 Gaussian 16:  ES64L-G16RevB.01 20-Dec-2017
                20-Nov-2022 
 ******************************************
 %nprocshared=32
 Will use up to   32 processors via shared memory.
 %mem=120GB
 %chk=_conf012.chk
 ----------------------------------------
 #P wB97XD/6-311++G(d,p) scf=maxcycle=512
 ----------------------------------------
 1/38=1,172=1/1;
 2/12=2,17=6,18=5,40=1/2;
 3/5=4,6=6,7=1111,11=2,25=1,30=1,74=-58/1,2,3;
 4//1;
 5/5=2,7=512,38=5/2;
 6/7=2,8=2,9=2,10=2,28=1/1;
 99/5=1,9=1/99;
 Leave Link    1 at Sun Nov 20 17:26:23 2022, MaxMem= 16106127360 cpu:               2.0 elap:               0.1
 (Enter /opt/ap/G16/B01/g16/l101.exe)
 ----------------------------
 _conf012.gjf nmol_natom 1_15
 ----------------------------
 Symbolic Z-matrix:
 Charge =  0 Multiplicity = 1
 C
 C                    1     1.39016 
 C                    1     1.39195  2     119.89594 
 C                    2     1.38669  1     119.88076  3     0.70826  0
 H                    2     0.98744  1     119.71654  3    -179.90726  0
 C                    1     1.48429  2     119.93615  4    -179.87772  0
 C                    3     1.40101  1     119.72365  2    -0.26267  0
 H                    3     0.99022  1     119.18862  2     178.85398  0
 C                    4     1.37899  2     120.45786  1    -0.48041  0
 H                    4     0.98347  2     120.30443  1     179.36167  0
 O                    6     1.2746   1     118.00615  2    -1.25977  0
 O                    6     1.26363  1     118.77715  2     179.20604  0
 H                    7     0.98977  3     119.37862  1    -178.93546  0
 H                    9     0.99498  4     119.46723  2    -178.58827  0
 H                    11    0.8968   6     118.15824  1    -210.     0
 
 ITRead=  0  0  0  0  0  0  0  0  0  0  0  0  0  0  0
 MicOpt= -1 -1 -1 -1 -1 -1 -1 -1 -1 -1 -1 -1 -1 -1 -1
 NAtoms=     15 NQM=       15 NQMF=       0 NMMI=      0 NMMIF=      0
                NMic=       0 NMicF=      0.
                    Isotopes and Nuclear Properties:
 (Nuclear quadrupole moments (NQMom) in fm**2, nuclear magnetic moments (NMagM)
  in nuclear magnetons)

  Atom         1           2           3           4           5           6           7           8           9          10
 IAtWgt=          12          12          12          12           1          12          12           1          12           1
 AtmWgt=  12.0000000  12.0000000  12.0000000  12.0000000   1.0078250  12.0000000  12.0000000   1.0078250  12.0000000   1.0078250
 NucSpn=           0           0           0           0           1           0           0           1           0           1
 AtZEff=  -0.0000000  -0.0000000  -0.0000000  -0.0000000  -0.0000000  -0.0000000  -0.0000000  -0.0000000  -0.0000000  -0.0000000
 NQMom=    0.0000000   0.0000000   0.0000000   0.0000000   0.0000000   0.0000000   0.0000000   0.0000000   0.0000000   0.0000000
 NMagM=    0.0000000   0.0000000   0.0000000   0.0000000   2.7928460   0.0000000   0.0000000   2.7928460   0.0000000   2.7928460
 AtZNuc=   6.0000000   6.0000000   6.0000000   6.0000000   1.0000000   6.0000000   6.0000000   1.0000000   6.0000000   1.0000000

  Atom        11          12          13          14          15
 IAtWgt=          16          16           1           1           1
 AtmWgt=  15.9949146  15.9949146   1.0078250   1.0078250   1.0078250
 NucSpn=           0           0           1           1           1
 AtZEff=  -0.0000000  -0.0000000  -0.0000000  -0.0000000  -0.0000000
 NQMom=    0.0000000   0.0000000   0.0000000   0.0000000   0.0000000
 NMagM=    0.0000000   0.0000000   2.7928460   2.7928460   2.7928460
 AtZNuc=   8.0000000   8.0000000   1.0000000   1.0000000   1.0000000
 Leave Link  101 at Sun Nov 20 17:26:23 2022, MaxMem= 16106127360 cpu:               5.1 elap:               0.2
 (Enter /opt/ap/G16/B01/g16/l202.exe)
                          Input orientation:                          
 ---------------------------------------------------------------------
 Center     Atomic      Atomic             Coordinates (Angstroms)
 Number     Number       Type             X           Y           Z
 ---------------------------------------------------------------------
      1          6           0        0.000000    0.000000    0.000000
      2          6           0        0.000000    0.000000    1.390162
      3          6           0        1.206722    0.000000   -0.693782
      4          6           0        1.202258    0.014862    2.081006
      5          1           0       -0.857581   -0.001388    1.879646
      6          6           0       -1.286190   -0.013155   -0.740711
      7          6           0        2.415349    0.005578    0.014752
      8          1           0        1.194584   -0.017290   -1.683772
      9          6           0        2.400563    0.019708    1.398617
     10          1           0        1.209438    0.024411    3.064408
     11          8           0       -2.365984   -0.048941   -0.064425
     12          8           0       -1.260842    0.002453   -2.003986
     13          1           0        3.270315    0.021574   -0.483669
     14          1           0        3.254554    0.009066    1.909081
     15          1           0       -3.096422    0.337700   -0.412599
 ---------------------------------------------------------------------
                    Distance matrix (angstroms):
                    1          2          3          4          5
     1  C    0.000000
     2  C    1.390162   0.000000
     3  C    1.391945   2.408112   0.000000
     4  C    2.403379   1.386690   2.774832   0.000000
     5  H    2.066039   0.987443   3.299073   2.069721   0.000000
     6  C    1.484288   2.488991   2.493388   3.762345   2.655206
     7  C    2.415401   2.779513   1.401011   2.396056   3.766955
     8  H    2.064563   3.297939   0.990215   3.764924   4.112127
     9  C    2.778349   2.400659   2.409104   1.378990   3.293530
    10  H    3.294530   2.065535   3.758270   0.983474   2.382624
    11  O    2.367367   2.777786   3.628045   4.164047   2.461088
    12  O    2.367633   3.620769   2.793834   4.770133   3.904515
    13  H    3.305958   3.769173   2.074374   3.294611   4.756607
    14  H    3.773167   3.295676   3.311886   2.059493   4.112253
    15  H    3.141992   3.598864   4.325524   4.980054   3.222077
                    6          7          8          9         10
     6  C    0.000000
     7  C    3.777892   0.000000
     8  H    2.653982   2.091836   0.000000
     9  C    4.262622   1.384016   3.310118   0.000000
    10  H    4.550659   3.279477   4.748386   2.047842   0.000000
    11  O    1.274598   4.782299   3.911641   4.986499   4.751696
    12  O    1.263626   4.194007   2.476296   4.998389   5.638384
    13  H    4.563881   0.989771   2.398003   2.073517   4.103177
    14  H    5.257398   2.071897   4.141589   0.994981   2.348938
    15  H    1.872885   5.538281   4.489392   5.796419   5.543299
                   11         12         13         14         15
    11  O    0.000000
    12  O    2.232908   0.000000
    13  H    5.652309   4.779447   0.000000
    14  H    5.957225   5.975025   2.392834   0.000000
    15  H    0.896804   2.452399   6.374977   6.770014   0.000000
 Stoichiometry    C7H6O2
 Framework group  C1[X(C7H6O2)]
 Deg. of freedom    39
 Full point group                 C1      NOp   1
 Largest Abelian subgroup         C1      NOp   1
 Largest concise Abelian subgroup C1      NOp   1
                         Standard orientation:                         
 ---------------------------------------------------------------------
 Center     Atomic      Atomic             Coordinates (Angstroms)
 Number     Number       Type             X           Y           Z
 ---------------------------------------------------------------------
      1          6           0       -0.222012    0.029265   -0.001925
      2          6           0        0.441372   -1.192400   -0.004746
      3          6           0        0.507372    1.214807   -0.002999
      4          6           0        1.827617   -1.225800    0.006241
      5          1           0       -0.078684   -2.031794   -0.005364
      6          6           0       -1.705807    0.066433   -0.010930
      7          6           0        1.907630    1.168907   -0.001345
      8          1           0        0.024235    2.079024   -0.018254
      9          6           0        2.555054   -0.054291    0.010007
     10          1           0        2.303232   -2.086587    0.013779
     11          8           0       -2.332096   -1.043134   -0.045868
     12          8           0       -2.286322    1.188674    0.007189
     13          1           0        2.421164    2.014896    0.013904
     14          1           0        3.549097   -0.095347   -0.003429
     15          1           0       -3.139074   -1.086039    0.342981
 ---------------------------------------------------------------------
 Rotational constants (GHZ):           3.9606817           1.2401918           0.9449967
 Leave Link  202 at Sun Nov 20 17:26:23 2022, MaxMem= 16106127360 cpu:               0.3 elap:               0.0
 (Enter /opt/ap/G16/B01/g16/l301.exe)
 Standard basis: 6-311++G(d,p) (5D, 7F)
 Ernie: Thresh=  0.10000D-02 Tol=  0.10000D-05 Strict=F.
 There are   249 symmetry adapted cartesian basis functions of A   symmetry.
 There are   240 symmetry adapted basis functions of A   symmetry.
   240 basis functions,   378 primitive gaussians,   249 cartesian basis functions
    32 alpha electrons       32 beta electrons
       nuclear repulsion energy       409.5924704999 Hartrees.
 IExCor= 4639 DFT=T Ex+Corr=wB97XD ExCW=0 ScaHFX=  1.000000
 ScaDFX=  1.000000  1.000000  1.000000  1.000000 ScalE2=  1.000000  1.000000
 IRadAn=      5 IRanWt=     -1 IRanGd=            0 ICorTp=0 IEmpDi=121
 HFx  wShort=  0.000000 wLong=  0.200000 cFull=  0.222036 cShort=  0.000000 cLong=  0.777964
 DFx  wShort=  0.000000 wLong=  0.200000 cFull=  0.000000 cShort=  0.000000 cLong=  1.000000
 NAtoms=   15 NActive=   15 NUniq=   15 SFac= 1.00D+00 NAtFMM=   60 NAOKFM=F Big=F
 Integral buffers will be    131072 words long.
 Raffenetti 2 integral format.
 Two-electron integral symmetry is turned on.
 R6Disp:  Grimme-D2 Dispersion energy=       -0.0063590177 Hartrees.
 Nuclear repulsion after empirical dispersion term =      409.5861114821 Hartrees.
 Leave Link  301 at Sun Nov 20 17:26:23 2022, MaxMem= 16106127360 cpu:               1.2 elap:               0.0
 (Enter /opt/ap/G16/B01/g16/l302.exe)
 NPDir=0 NMtPBC=     1 NCelOv=     1 NCel=       1 NClECP=     1 NCelD=      1
         NCelK=      1 NCelE2=     1 NClLst=     1 CellRange=     0.0.
 One-electron integrals computed using PRISM.
 One-electron integral symmetry used in STVInt
 NBasis=   240 RedAO= T EigKep=  1.22D-06  NBF=   240
 NBsUse=   240 1.00D-06 EigRej= -1.00D+00 NBFU=   240
 Precomputing XC quadrature grid using
 IXCGrd= 4 IRadAn=           5 IRanWt=          -1 IRanGd=           0 AccXCQ= 0.00D+00.
 Generated NRdTot=       0 NPtTot=           0 NUsed=           0 NTot=          32
 NSgBfM=   249   249   249   249   249 MxSgAt=    15 MxSgA2=    15.
 Leave Link  302 at Sun Nov 20 17:26:23 2022, MaxMem= 16106127360 cpu:               6.5 elap:               0.2
 (Enter /opt/ap/G16/B01/g16/l303.exe)
 DipDrv:  MaxL=1.
 Leave Link  303 at Sun Nov 20 17:26:23 2022, MaxMem= 16106127360 cpu:               1.3 elap:               0.0
 (Enter /opt/ap/G16/B01/g16/l401.exe)
 ExpMin= 3.60D-02 ExpMax= 8.59D+03 ExpMxC= 1.30D+03 IAcc=3 IRadAn=         5 AccDes= 0.00D+00
 Harris functional with IExCor= 4639 and IRadAn=       5 diagonalized for initial guess.
 HarFok:  IExCor= 4639 AccDes= 0.00D+00 IRadAn=         5 IDoV= 1 UseB2=F ITyADJ=14
 ICtDFT=  3500011 ScaDFX=  1.000000  1.000000  1.000000  1.000000
 FoFCou: FMM=F IPFlag=           0 FMFlag=      100000 FMFlg1=           0
         NFxFlg=           0 DoJE=T BraDBF=F KetDBF=T FulRan=T
         wScrn=  0.000000 ICntrl=       500 IOpCl=  0 I1Cent=   200000004 NGrid=           0
         NMat0=    1 NMatS0=      1 NMatT0=    0 NMatD0=    1 NMtDS0=    0 NMtDT0=    0
 Petite list used in FoFCou.
 Harris En= -403.250891289679    
 JPrj=0 DoOrth=F DoCkMO=F.
 Leave Link  401 at Sun Nov 20 17:26:23 2022, MaxMem= 16106127360 cpu:              11.7 elap:               0.4
 (Enter /opt/ap/G16/B01/g16/l502.exe)
 Integral symmetry usage will be decided dynamically.
 Closed shell SCF:
 Using DIIS extrapolation, IDIIS=  1040.
 NGot= 16106127360 LenX= 16105992971 LenY= 16105930529
 Requested convergence on RMS density matrix=1.00D-08 within 512 cycles.
 Requested convergence on MAX density matrix=1.00D-06.
 Requested convergence on             energy=1.00D-06.
 No special actions if energy rises.
 Fock matrices will be formed incrementally for  20 cycles.

 Cycle   1  Pass 1  IDiag  1:
 FoFJK:  IHMeth= 1 ICntrl=       0 DoSepK=T KAlg= 0 I1Cent=           0 FoldK=F
 IRaf=         1 NMat=       1 IRICut=       1 DoRegI=T DoRafI=F ISym2E= 0 IDoP0=0 IntGTp=1.
 FoFCou: FMM=F IPFlag=           0 FMFlag=      100000 FMFlg1=           0
         NFxFlg=           0 DoJE=T BraDBF=F KetDBF=F FulRan=T
         wScrn=  0.000000 ICntrl=       500 IOpCl=  0 I1Cent=           0 NGrid=           0
         NMat0=    1 NMatS0=      1 NMatT0=    0 NMatD0=    1 NMtDS0=    0 NMtDT0=    0
 Symmetry not used in FoFCou.
 E= -420.629285881679    
 DIIS: error= 7.72D-02 at cycle   1 NSaved=   1.
 NSaved= 1 IEnMin= 1 EnMin= -420.629285881679     IErMin= 1 ErrMin= 7.72D-02
 ErrMax= 7.72D-02  0.00D+00 EMaxC= 1.00D-01 BMatC= 8.59D-01 BMatP= 8.59D-01
 IDIUse=3 WtCom= 2.28D-01 WtEn= 7.72D-01
 Coeff-Com:  0.100D+01
 Coeff-En:   0.100D+01
 Coeff:      0.100D+01
 Gap=     0.426 Goal=   None    Shift=    0.000
 GapD=    0.426 DampG=2.000 DampE=0.500 DampFc=1.0000 IDamp=-1.
 RMSDP=3.11D-02 MaxDP=2.51D+00              OVMax= 1.03D-01

 Cycle   2  Pass 1  IDiag  1:
 RMSU=  1.50D-02    CP:  6.66D-01
 E= -420.700922424105     Delta-E=       -0.071636542426 Rises=F Damp=F
 DIIS: error= 1.19D-02 at cycle   2 NSaved=   2.
 NSaved= 2 IEnMin= 2 EnMin= -420.700922424105     IErMin= 2 ErrMin= 1.19D-02
 ErrMax= 1.19D-02  0.00D+00 EMaxC= 1.00D-01 BMatC= 5.41D-02 BMatP= 8.59D-01
 IDIUse=3 WtCom= 8.81D-01 WtEn= 1.19D-01
 Coeff-Com:  0.132D+00 0.868D+00
 Coeff-En:   0.787D-01 0.921D+00
 Coeff:      0.125D+00 0.875D+00
 Gap=     0.422 Goal=   None    Shift=    0.000
 RMSDP=7.55D-03 MaxDP=4.66D-01 DE=-7.16D-02 OVMax= 7.11D-02

 Cycle   3  Pass 1  IDiag  1:
 RMSU=  6.42D-03    CP:  6.49D-01  7.51D-01
 E= -420.717442016125     Delta-E=       -0.016519592021 Rises=F Damp=F
 DIIS: error= 1.20D-02 at cycle   3 NSaved=   3.
 NSaved= 3 IEnMin= 3 EnMin= -420.717442016125     IErMin= 2 ErrMin= 1.19D-02
 ErrMax= 1.20D-02  0.00D+00 EMaxC= 1.00D-01 BMatC= 3.25D-02 BMatP= 5.41D-02
 IDIUse=3 WtCom= 8.80D-01 WtEn= 1.20D-01
 Coeff-Com:  0.265D-01 0.442D+00 0.531D+00
 Coeff-En:   0.000D+00 0.373D+00 0.627D+00
 Coeff:      0.234D-01 0.434D+00 0.543D+00
 Gap=     0.359 Goal=   None    Shift=    0.000
 RMSDP=3.50D-03 MaxDP=2.08D-01 DE=-1.65D-02 OVMax= 4.88D-02

 Cycle   4  Pass 1  IDiag  1:
 RMSU=  1.73D-03    CP:  6.32D-01  8.72D-01  6.89D-01
 E= -420.741577187744     Delta-E=       -0.024135171619 Rises=F Damp=F
 DIIS: error= 2.50D-03 at cycle   4 NSaved=   4.
 NSaved= 4 IEnMin= 4 EnMin= -420.741577187744     IErMin= 4 ErrMin= 2.50D-03
 ErrMax= 2.50D-03  0.00D+00 EMaxC= 1.00D-01 BMatC= 1.67D-03 BMatP= 3.25D-02
 IDIUse=3 WtCom= 9.75D-01 WtEn= 2.50D-02
 Coeff-Com:  0.104D-01 0.221D+00 0.305D+00 0.463D+00
 Coeff-En:   0.000D+00 0.000D+00 0.000D+00 0.100D+01
 Coeff:      0.102D-01 0.216D+00 0.298D+00 0.477D+00
 Gap=     0.348 Goal=   None    Shift=    0.000
 RMSDP=9.78D-04 MaxDP=5.33D-02 DE=-2.41D-02 OVMax= 1.13D-02

 Cycle   5  Pass 1  IDiag  1:
 RMSU=  7.10D-04    CP:  6.27D-01  8.55D-01  7.36D-01  7.70D-01
 E= -420.742706716876     Delta-E=       -0.001129529132 Rises=F Damp=F
 DIIS: error= 4.87D-04 at cycle   5 NSaved=   5.
 NSaved= 5 IEnMin= 5 EnMin= -420.742706716876     IErMin= 5 ErrMin= 4.87D-04
 ErrMax= 4.87D-04  0.00D+00 EMaxC= 1.00D-01 BMatC= 4.92D-05 BMatP= 1.67D-03
 IDIUse=3 WtCom= 9.95D-01 WtEn= 4.87D-03
 Coeff-Com:  0.283D-03 0.145D-01 0.293D-01 0.155D+00 0.801D+00
 Coeff-En:   0.000D+00 0.000D+00 0.000D+00 0.000D+00 0.100D+01
 Coeff:      0.282D-03 0.144D-01 0.291D-01 0.154D+00 0.802D+00
 Gap=     0.347 Goal=   None    Shift=    0.000
 RMSDP=2.29D-04 MaxDP=1.21D-02 DE=-1.13D-03 OVMax= 2.44D-03

 Cycle   6  Pass 1  IDiag  1:
 RMSU=  1.25D-04    CP:  6.25D-01  8.59D-01  7.52D-01  7.85D-01  1.02D+00
 E= -420.742745367993     Delta-E=       -0.000038651117 Rises=F Damp=F
 DIIS: error= 1.90D-04 at cycle   6 NSaved=   6.
 NSaved= 6 IEnMin= 6 EnMin= -420.742745367993     IErMin= 6 ErrMin= 1.90D-04
 ErrMax= 1.90D-04  0.00D+00 EMaxC= 1.00D-01 BMatC= 7.19D-06 BMatP= 4.92D-05
 IDIUse=3 WtCom= 9.98D-01 WtEn= 1.90D-03
 Coeff-Com: -0.979D-03-0.170D-01-0.187D-01 0.151D-01 0.349D+00 0.673D+00
 Coeff-En:   0.000D+00 0.000D+00 0.000D+00 0.000D+00 0.000D+00 0.100D+01
 Coeff:     -0.977D-03-0.169D-01-0.186D-01 0.151D-01 0.348D+00 0.673D+00
 Gap=     0.348 Goal=   None    Shift=    0.000
 RMSDP=1.68D-04 MaxDP=1.45D-02 DE=-3.87D-05 OVMax= 8.18D-04

 Cycle   7  Pass 1  IDiag  1:
 RMSU=  4.32D-05    CP:  6.24D-01  8.56D-01  7.63D-01  7.91D-01  1.11D+00
                    CP:  1.09D+00
 E= -420.742752364717     Delta-E=       -0.000006996724 Rises=F Damp=F
 DIIS: error= 6.92D-05 at cycle   7 NSaved=   7.
 NSaved= 7 IEnMin= 7 EnMin= -420.742752364717     IErMin= 7 ErrMin= 6.92D-05
 ErrMax= 6.92D-05  0.00D+00 EMaxC= 1.00D-01 BMatC= 3.07D-07 BMatP= 7.19D-06
 IDIUse=1 WtCom= 1.00D+00 WtEn= 0.00D+00
 Coeff-Com: -0.244D-03-0.564D-02-0.711D-02-0.138D-01 0.269D-02 0.139D+00
 Coeff-Com:  0.885D+00
 Coeff:     -0.244D-03-0.564D-02-0.711D-02-0.138D-01 0.269D-02 0.139D+00
 Coeff:      0.885D+00
 Gap=     0.348 Goal=   None    Shift=    0.000
 RMSDP=4.65D-05 MaxDP=2.58D-03 DE=-7.00D-06 OVMax= 3.28D-04

 Cycle   8  Pass 1  IDiag  1:
 RMSU=  1.56D-05    CP:  6.24D-01  8.56D-01  7.66D-01  7.90D-01  1.15D+00
                    CP:  1.12D+00  1.09D+00
 E= -420.742752936736     Delta-E=       -0.000000572019 Rises=F Damp=F
 DIIS: error= 1.55D-05 at cycle   8 NSaved=   8.
 NSaved= 8 IEnMin= 8 EnMin= -420.742752936736     IErMin= 8 ErrMin= 1.55D-05
 ErrMax= 1.55D-05  0.00D+00 EMaxC= 1.00D-01 BMatC= 4.15D-08 BMatP= 3.07D-07
 IDIUse=1 WtCom= 1.00D+00 WtEn= 0.00D+00
 Coeff-Com:  0.299D-04 0.241D-03 0.106D-03-0.615D-02-0.373D-01-0.370D-01
 Coeff-Com:  0.243D+00 0.837D+00
 Coeff:      0.299D-04 0.241D-03 0.106D-03-0.615D-02-0.373D-01-0.370D-01
 Coeff:      0.243D+00 0.837D+00
 Gap=     0.348 Goal=   None    Shift=    0.000
 RMSDP=1.50D-05 MaxDP=7.67D-04 DE=-5.72D-07 OVMax= 1.24D-04

 Cycle   9  Pass 1  IDiag  1:
 RMSU=  4.80D-06    CP:  6.24D-01  8.56D-01  7.66D-01  7.87D-01  1.17D+00
                    CP:  1.15D+00  1.17D+00  1.22D+00
 E= -420.742753010159     Delta-E=       -0.000000073423 Rises=F Damp=F
 DIIS: error= 1.08D-05 at cycle   9 NSaved=   9.
 NSaved= 9 IEnMin= 9 EnMin= -420.742753010159     IErMin= 9 ErrMin= 1.08D-05
 ErrMax= 1.08D-05  0.00D+00 EMaxC= 1.00D-01 BMatC= 5.10D-09 BMatP= 4.15D-08
 IDIUse=1 WtCom= 1.00D+00 WtEn= 0.00D+00
 Coeff-Com:  0.387D-04 0.739D-03 0.890D-03-0.462D-03-0.109D-01-0.279D-01
 Coeff-Com: -0.244D-01 0.260D+00 0.802D+00
 Coeff:      0.387D-04 0.739D-03 0.890D-03-0.462D-03-0.109D-01-0.279D-01
 Coeff:     -0.244D-01 0.260D+00 0.802D+00
 Gap=     0.348 Goal=   None    Shift=    0.000
 RMSDP=5.06D-06 MaxDP=2.99D-04 DE=-7.34D-08 OVMax= 5.03D-05

 Cycle  10  Pass 1  IDiag  1:
 RMSU=  1.56D-06    CP:  6.24D-01  8.56D-01  7.66D-01  7.85D-01  1.17D+00
                    CP:  1.15D+00  1.19D+00  1.32D+00  1.26D+00
 E= -420.742753018886     Delta-E=       -0.000000008727 Rises=F Damp=F
 DIIS: error= 1.42D-06 at cycle  10 NSaved=  10.
 NSaved=10 IEnMin=10 EnMin= -420.742753018886     IErMin=10 ErrMin= 1.42D-06
 ErrMax= 1.42D-06  0.00D+00 EMaxC= 1.00D-01 BMatC= 6.72D-10 BMatP= 5.10D-09
 IDIUse=1 WtCom= 1.00D+00 WtEn= 0.00D+00
 Coeff-Com:  0.770D-05 0.168D-03 0.226D-03 0.409D-03 0.106D-02-0.473D-02
 Coeff-Com: -0.312D-01-0.186D-01 0.244D+00 0.809D+00
 Coeff:      0.770D-05 0.168D-03 0.226D-03 0.409D-03 0.106D-02-0.473D-02
 Coeff:     -0.312D-01-0.186D-01 0.244D+00 0.809D+00
 Gap=     0.348 Goal=   None    Shift=    0.000
 RMSDP=1.70D-06 MaxDP=1.12D-04 DE=-8.73D-09 OVMax= 1.41D-05

 Cycle  11  Pass 1  IDiag  1:
 RMSU=  3.71D-07    CP:  6.24D-01  8.56D-01  7.66D-01  7.84D-01  1.17D+00
                    CP:  1.15D+00  1.20D+00  1.37D+00  1.39D+00  1.16D+00
 E= -420.742753019941     Delta-E=       -0.000000001055 Rises=F Damp=F
 DIIS: error= 8.94D-07 at cycle  11 NSaved=  11.
 NSaved=11 IEnMin=11 EnMin= -420.742753019941     IErMin=11 ErrMin= 8.94D-07
 ErrMax= 8.94D-07  0.00D+00 EMaxC= 1.00D-01 BMatC= 1.11D-10 BMatP= 6.72D-10
 IDIUse=1 WtCom= 1.00D+00 WtEn= 0.00D+00
 Coeff-Com: -0.167D-05-0.145D-04-0.351D-05 0.253D-03 0.199D-02 0.144D-02
 Coeff-Com: -0.867D-02-0.468D-01-0.157D-01 0.314D+00 0.753D+00
 Coeff:     -0.167D-05-0.145D-04-0.351D-05 0.253D-03 0.199D-02 0.144D-02
 Coeff:     -0.867D-02-0.468D-01-0.157D-01 0.314D+00 0.753D+00
 Gap=     0.348 Goal=   None    Shift=    0.000
 RMSDP=7.05D-07 MaxDP=4.26D-05 DE=-1.06D-09 OVMax= 6.50D-06

 Cycle  12  Pass 1  IDiag  1:
 RMSU=  2.53D-07    CP:  6.24D-01  8.56D-01  7.66D-01  7.84D-01  1.17D+00
                    CP:  1.15D+00  1.20D+00  1.38D+00  1.43D+00  1.30D+00
                    CP:  1.09D+00
 E= -420.742753020108     Delta-E=       -0.000000000167 Rises=F Damp=F
 DIIS: error= 1.69D-07 at cycle  12 NSaved=  12.
 NSaved=12 IEnMin=12 EnMin= -420.742753020108     IErMin=12 ErrMin= 1.69D-07
 ErrMax= 1.69D-07  0.00D+00 EMaxC= 1.00D-01 BMatC= 8.83D-12 BMatP= 1.11D-10
 IDIUse=1 WtCom= 1.00D+00 WtEn= 0.00D+00
 Coeff-Com: -0.109D-05-0.178D-04-0.187D-04 0.372D-04 0.462D-03 0.663D-03
 Coeff-Com:  0.839D-03-0.113D-01-0.248D-01 0.135D-01 0.199D+00 0.822D+00
 Coeff:     -0.109D-05-0.178D-04-0.187D-04 0.372D-04 0.462D-03 0.663D-03
 Coeff:      0.839D-03-0.113D-01-0.248D-01 0.135D-01 0.199D+00 0.822D+00
 Gap=     0.348 Goal=   None    Shift=    0.000
 RMSDP=1.41D-07 MaxDP=9.57D-06 DE=-1.67D-10 OVMax= 2.78D-06

 Cycle  13  Pass 1  IDiag  1:
 RMSU=  6.38D-08    CP:  6.24D-01  8.56D-01  7.66D-01  7.84D-01  1.17D+00
                    CP:  1.15D+00  1.20D+00  1.37D+00  1.45D+00  1.32D+00
                    CP:  1.17D+00  1.01D+00
 E= -420.742753020129     Delta-E=       -0.000000000021 Rises=F Damp=F
 DIIS: error= 1.06D-07 at cycle  13 NSaved=  13.
 NSaved=13 IEnMin=13 EnMin= -420.742753020129     IErMin=13 ErrMin= 1.06D-07
 ErrMax= 1.06D-07  0.00D+00 EMaxC= 1.00D-01 BMatC= 1.48D-12 BMatP= 8.83D-12
 IDIUse=1 WtCom= 1.00D+00 WtEn= 0.00D+00
 Coeff-Com:  0.290D-07-0.393D-05-0.702D-05-0.401D-04-0.254D-03-0.119D-03
 Coeff-Com:  0.200D-02 0.553D-02-0.316D-02-0.560D-01-0.100D+00 0.206D+00
 Coeff-Com:  0.947D+00
 Coeff:      0.290D-07-0.393D-05-0.702D-05-0.401D-04-0.254D-03-0.119D-03
 Coeff:      0.200D-02 0.553D-02-0.316D-02-0.560D-01-0.100D+00 0.206D+00
 Coeff:      0.947D+00
 Gap=     0.348 Goal=   None    Shift=    0.000
 RMSDP=7.96D-08 MaxDP=7.33D-06 DE=-2.11D-11 OVMax= 1.96D-06

 Cycle  14  Pass 1  IDiag  1:
 RMSU=  2.46D-08    CP:  6.24D-01  8.56D-01  7.66D-01  7.84D-01  1.17D+00
                    CP:  1.15D+00  1.20D+00  1.37D+00  1.45D+00  1.33D+00
                    CP:  1.20D+00  1.10D+00  1.33D+00
 E= -420.742753020138     Delta-E=       -0.000000000008 Rises=F Damp=F
 DIIS: error= 4.48D-08 at cycle  14 NSaved=  14.
 NSaved=14 IEnMin=14 EnMin= -420.742753020138     IErMin=14 ErrMin= 4.48D-08
 ErrMax= 4.48D-08  0.00D+00 EMaxC= 1.00D-01 BMatC= 1.46D-13 BMatP= 1.48D-12
 IDIUse=1 WtCom= 1.00D+00 WtEn= 0.00D+00
 Coeff-Com:  0.830D-07 0.154D-05 0.169D-05-0.463D-05-0.666D-04-0.516D-04
 Coeff-Com: -0.977D-05 0.139D-02 0.237D-02-0.463D-02-0.245D-01-0.787D-01
 Coeff-Com:  0.338D-01 0.107D+01
 Coeff:      0.830D-07 0.154D-05 0.169D-05-0.463D-05-0.666D-04-0.516D-04
 Coeff:     -0.977D-05 0.139D-02 0.237D-02-0.463D-02-0.245D-01-0.787D-01
 Coeff:      0.338D-01 0.107D+01
 Gap=     0.348 Goal=   None    Shift=    0.000
 RMSDP=2.88D-08 MaxDP=2.22D-06 DE=-8.41D-12 OVMax= 8.43D-07

 Cycle  15  Pass 1  IDiag  1:
 RMSU=  7.88D-09    CP:  6.24D-01  8.56D-01  7.66D-01  7.84D-01  1.17D+00
                    CP:  1.15D+00  1.20D+00  1.37D+00  1.45D+00  1.33D+00
                    CP:  1.20D+00  1.09D+00  1.52D+00  1.31D+00
 E= -420.742753020139     Delta-E=       -0.000000000001 Rises=F Damp=F
 DIIS: error= 2.62D-08 at cycle  15 NSaved=  15.
 NSaved=15 IEnMin=15 EnMin= -420.742753020139     IErMin=15 ErrMin= 2.62D-08
 ErrMax= 2.62D-08  0.00D+00 EMaxC= 1.00D-01 BMatC= 3.87D-14 BMatP= 1.46D-13
 IDIUse=1 WtCom= 1.00D+00 WtEn= 0.00D+00
 Coeff-Com:  0.200D-07 0.112D-05 0.172D-05 0.500D-05 0.167D-04 0.888D-05
 Coeff-Com: -0.323D-03-0.371D-03 0.136D-02 0.748D-02 0.797D-02-0.557D-01
 Coeff-Com: -0.142D+00 0.373D+00 0.808D+00
 Coeff:      0.200D-07 0.112D-05 0.172D-05 0.500D-05 0.167D-04 0.888D-05
 Coeff:     -0.323D-03-0.371D-03 0.136D-02 0.748D-02 0.797D-02-0.557D-01
 Coeff:     -0.142D+00 0.373D+00 0.808D+00
 Gap=     0.348 Goal=   None    Shift=    0.000
 RMSDP=7.73D-09 MaxDP=3.29D-07 DE=-1.25D-12 OVMax= 2.76D-07

 SCF Done:  E(RwB97XD) =  -420.742753020     A.U. after   15 cycles
            NFock= 15  Conv=0.77D-08     -V/T= 2.0015
 KE= 4.201287278803D+02 PE=-1.802696839975D+03 EE= 5.522392475924D+02
 Leave Link  502 at Sun Nov 20 17:26:36 2022, MaxMem= 16106127360 cpu:             408.0 elap:              12.8
 (Enter /opt/ap/G16/B01/g16/l601.exe)
 Copying SCF densities to generalized density rwf, IOpCl= 0 IROHF=0.

 **********************************************************************

            Population analysis using the SCF Density.

 **********************************************************************

 Orbital symmetries:
       Occupied  (A) (A) (A) (A) (A) (A) (A) (A) (A) (A) (A) (A)
                 (A) (A) (A) (A) (A) (A) (A) (A) (A) (A) (A) (A)
                 (A) (A) (A) (A) (A) (A) (A) (A)
       Virtual   (A) (A) (A) (A) (A) (A) (A) (A) (A) (A) (A) (A)
                 (A) (A) (A) (A) (A) (A) (A) (A) (A) (A) (A) (A)
                 (A) (A) (A) (A) (A) (A) (A) (A) (A) (A) (A) (A)
                 (A) (A) (A) (A) (A) (A) (A) (A) (A) (A) (A) (A)
                 (A) (A) (A) (A) (A) (A) (A) (A) (A) (A) (A) (A)
                 (A) (A) (A) (A) (A) (A) (A) (A) (A) (A) (A) (A)
                 (A) (A) (A) (A) (A) (A) (A) (A) (A) (A) (A) (A)
                 (A) (A) (A) (A) (A) (A) (A) (A) (A) (A) (A) (A)
                 (A) (A) (A) (A) (A) (A) (A) (A) (A) (A) (A) (A)
                 (A) (A) (A) (A) (A) (A) (A) (A) (A) (A) (A) (A)
                 (A) (A) (A) (A) (A) (A) (A) (A) (A) (A) (A) (A)
                 (A) (A) (A) (A) (A) (A) (A) (A) (A) (A) (A) (A)
                 (A) (A) (A) (A) (A) (A) (A) (A) (A) (A) (A) (A)
                 (A) (A) (A) (A) (A) (A) (A) (A) (A) (A) (A) (A)
                 (A) (A) (A) (A) (A) (A) (A) (A) (A) (A) (A) (A)
                 (A) (A) (A) (A) (A) (A) (A) (A) (A) (A) (A) (A)
                 (A) (A) (A) (A) (A) (A) (A) (A) (A) (A) (A) (A)
                 (A) (A) (A) (A)
 The electronic state is 1-A.
 Alpha  occ. eigenvalues --  -19.31273 -19.22913 -10.43156 -10.30994 -10.29334
 Alpha  occ. eigenvalues --  -10.29313 -10.29214 -10.29009 -10.28754  -1.25593
 Alpha  occ. eigenvalues --   -1.10661  -0.98081  -0.88855  -0.87028  -0.80382
 Alpha  occ. eigenvalues --   -0.73393  -0.71997  -0.65921  -0.60833  -0.58642
 Alpha  occ. eigenvalues --   -0.56726  -0.56080  -0.54274  -0.53487  -0.48571
 Alpha  occ. eigenvalues --   -0.47399  -0.45434  -0.44624  -0.41227  -0.36129
 Alpha  occ. eigenvalues --   -0.34677  -0.34323
 Alpha virt. eigenvalues --    0.00447   0.03689   0.04274   0.04515   0.05280
 Alpha virt. eigenvalues --    0.06483   0.07821   0.08700   0.10195   0.11128
 Alpha virt. eigenvalues --    0.11882   0.12938   0.13348   0.14311   0.14605
 Alpha virt. eigenvalues --    0.16007   0.16352   0.16926   0.17435   0.17956
 Alpha virt. eigenvalues --    0.18097   0.19510   0.20084   0.20130   0.20473
 Alpha virt. eigenvalues --    0.21166   0.21581   0.21708   0.23428   0.23755
 Alpha virt. eigenvalues --    0.25511   0.26332   0.26886   0.27879   0.28363
 Alpha virt. eigenvalues --    0.29600   0.29871   0.30583   0.31075   0.31970
 Alpha virt. eigenvalues --    0.32121   0.33492   0.34411   0.35341   0.36029
 Alpha virt. eigenvalues --    0.36351   0.37128   0.37964   0.39758   0.39956
 Alpha virt. eigenvalues --    0.41627   0.42083   0.42536   0.44145   0.45786
 Alpha virt. eigenvalues --    0.46644   0.50287   0.53443   0.54672   0.57706
 Alpha virt. eigenvalues --    0.59688   0.60377   0.61910   0.63738   0.64161
 Alpha virt. eigenvalues --    0.64546   0.64967   0.65923   0.66422   0.69039
 Alpha virt. eigenvalues --    0.69847   0.72152   0.73804   0.74162   0.75212
 Alpha virt. eigenvalues --    0.76741   0.81068   0.82485   0.83592   0.86291
 Alpha virt. eigenvalues --    0.88533   0.90392   0.92964   0.93731   0.94640
 Alpha virt. eigenvalues --    0.96283   0.96994   0.97728   0.99806   1.00553
 Alpha virt. eigenvalues --    1.03947   1.07373   1.07873   1.09737   1.11170
 Alpha virt. eigenvalues --    1.14292   1.15168   1.16056   1.16454   1.18276
 Alpha virt. eigenvalues --    1.21197   1.21394   1.24202   1.28047   1.29195
 Alpha virt. eigenvalues --    1.34815   1.40059   1.43854   1.45744   1.55255
 Alpha virt. eigenvalues --    1.58445   1.59052   1.60510   1.61008   1.62264
 Alpha virt. eigenvalues --    1.62519   1.66176   1.67033   1.67604   1.74811
 Alpha virt. eigenvalues --    1.75127   1.77360   1.79389   1.83029   1.87672
 Alpha virt. eigenvalues --    1.88141   1.91265   1.91692   1.95203   2.00324
 Alpha virt. eigenvalues --    2.00410   2.01908   2.03558   2.04505   2.05418
 Alpha virt. eigenvalues --    2.07037   2.10942   2.15348   2.17962   2.19448
 Alpha virt. eigenvalues --    2.23172   2.29117   2.29545   2.42691   2.45944
 Alpha virt. eigenvalues --    2.51951   2.54093   2.54521   2.57627   2.59446
 Alpha virt. eigenvalues --    2.71422   2.73023   2.74869   2.77192   2.81115
 Alpha virt. eigenvalues --    2.81730   2.83100   2.88231   2.89433   2.90536
 Alpha virt. eigenvalues --    2.90667   2.91808   2.96063   2.99687   3.00455
 Alpha virt. eigenvalues --    3.04264   3.05922   3.06460   3.15404   3.18610
 Alpha virt. eigenvalues --    3.18836   3.23306   3.28033   3.31872   3.37532
 Alpha virt. eigenvalues --    3.39608   3.45222   3.48410   3.50127   3.63771
 Alpha virt. eigenvalues --    3.66273   3.69032   3.74235   3.84324   3.87679
 Alpha virt. eigenvalues --    4.05801   4.16984   4.28378   4.30754   4.36706
 Alpha virt. eigenvalues --    4.40488   4.45272   4.94933   5.09060   5.15468
 Alpha virt. eigenvalues --    5.30480   5.48168   5.82839   6.08343  23.84069
 Alpha virt. eigenvalues --   23.94488  24.14115  24.21347  24.28323  24.30403
 Alpha virt. eigenvalues --   24.41813  50.04301  50.16535
          Condensed to atoms (all electrons):
               1          2          3          4          5          6
     1  C   10.425692  -3.017229  -1.611989   2.184925  -0.056922  -2.246885
     2  C   -3.017229  17.173852  -2.039022  -5.854005   0.782242  -0.869443
     3  C   -1.611989  -2.039022  12.773319   0.233855  -0.055764  -0.751892
     4  C    2.184925  -5.854005   0.233855   9.151357  -0.215934   0.025366
     5  H   -0.056922   0.782242  -0.055764  -0.215934   0.486452  -0.131557
     6  C   -2.246885  -0.869443  -0.751892   0.025366  -0.131557   8.694517
     7  C    0.899132  -0.561156  -3.305853   0.845899   0.000286   0.417296
     8  H   -0.022872   0.035511   0.545367  -0.020034   0.000658  -0.078457
     9  C   -1.186438   1.674132   1.040465  -0.971261   0.044675  -0.205749
    10  H    0.048517  -0.176898   0.026270   0.473405  -0.014508   0.020337
    11  O   -0.209183  -0.249626  -0.051002   0.088231  -0.044167   0.467214
    12  O   -0.222205  -0.114864  -0.042509   0.064950  -0.006949   0.621275
    13  H    0.029913  -0.000974  -0.127804   0.006524   0.000028   0.020472
    14  H    0.006683   0.028160   0.009598  -0.066224   0.001633  -0.015817
    15  H   -0.053252   0.001790   0.004150  -0.020657   0.001310   0.057200
               7          8          9         10         11         12
     1  C    0.899132  -0.022872  -1.186438   0.048517  -0.209183  -0.222205
     2  C   -0.561156   0.035511   1.674132  -0.176898  -0.249626  -0.114864
     3  C   -3.305853   0.545367   1.040465   0.026270  -0.051002  -0.042509
     4  C    0.845899  -0.020034  -0.971261   0.473405   0.088231   0.064950
     5  H    0.000286   0.000658   0.044675  -0.014508  -0.044167  -0.006949
     6  C    0.417296  -0.078457  -0.205749   0.020337   0.467214   0.621275
     7  C    7.995326  -0.117902  -0.766417  -0.002480   0.073679   0.118554
     8  H   -0.117902   0.433177   0.031412   0.000104  -0.006416  -0.008967
     9  C   -0.766417   0.031412   6.532903  -0.052596  -0.041184  -0.025110
    10  H   -0.002480   0.000104  -0.052596   0.474730   0.003619   0.000786
    11  O    0.073679  -0.006416  -0.041184   0.003619   7.993624  -0.130500
    12  O    0.118554  -0.008967  -0.025110   0.000786  -0.130500   8.072934
    13  H    0.449701  -0.009995  -0.043166  -0.000762   0.001306   0.002035
    14  H   -0.047251   0.000898   0.440143  -0.008264  -0.000671  -0.000466
    15  H    0.011400  -0.000494  -0.003650  -0.000044   0.280334  -0.001625
              13         14         15
     1  C    0.029913   0.006683  -0.053252
     2  C   -0.000974   0.028160   0.001790
     3  C   -0.127804   0.009598   0.004150
     4  C    0.006524  -0.066224  -0.020657
     5  H    0.000028   0.001633   0.001310
     6  C    0.020472  -0.015817   0.057200
     7  C    0.449701  -0.047251   0.011400
     8  H   -0.009995   0.000898  -0.000494
     9  C   -0.043166   0.440143  -0.003650
    10  H   -0.000762  -0.008264  -0.000044
    11  O    0.001306  -0.000671   0.280334
    12  O    0.002035  -0.000466  -0.001625
    13  H    0.466091  -0.007185   0.000163
    14  H   -0.007185   0.471570  -0.000125
    15  H    0.000163  -0.000125   0.399988
 Mulliken charges:
               1
     1  C    1.032113
     2  C   -0.812470
     3  C   -0.647189
     4  C    0.073604
     5  H    0.208516
     6  C   -0.023878
     7  C   -0.010214
     8  H    0.218009
     9  C   -0.468156
    10  H    0.207783
    11  O   -0.175257
    12  O   -0.327340
    13  H    0.213652
    14  H    0.187316
    15  H    0.323511
 Sum of Mulliken charges =  -0.00000
 Mulliken charges with hydrogens summed into heavy atoms:
               1
     1  C    1.032113
     2  C   -0.603954
     3  C   -0.429180
     4  C    0.281387
     6  C   -0.023878
     7  C    0.203438
     9  C   -0.280840
    11  O    0.148254
    12  O   -0.327340
 Electronic spatial extent (au):  <R**2>=           1157.5224
 Charge=             -0.0000 electrons
 Dipole moment (field-independent basis, Debye):
    X=              1.5189    Y=             -2.3432    Z=              0.6614  Tot=              2.8697
 Quadrupole moment (field-independent basis, Debye-Ang):
   XX=            -44.5801   YY=            -49.6787   ZZ=            -53.8149
   XY=              8.0893   XZ=             -2.4092   YZ=             -1.0017
 Traceless Quadrupole moment (field-independent basis, Debye-Ang):
   XX=              4.7778   YY=             -0.3208   ZZ=             -4.4570
   XY=              8.0893   XZ=             -2.4092   YZ=             -1.0017
 Octapole moment (field-independent basis, Debye-Ang**2):
  XXX=            -15.0934  YYY=             -4.4798  ZZZ=              0.2463  XYY=              6.7333
  XXY=            -26.0473  XXZ=              8.1029  XZZ=            -12.2001  YZZ=             -0.7131
  YYZ=              0.9859  XYZ=              3.2246
 Hexadecapole moment (field-independent basis, Debye-Ang**3):
 XXXX=           -898.3575 YYYY=           -358.6182 ZZZZ=            -58.6409 XXXY=             87.2689
 XXXZ=            -27.4540 YYYX=             17.1829 YYYZ=             -1.8082 ZZZX=             -1.5271
 ZZZY=             -0.5789 XXYY=           -232.5641 XXZZ=           -191.6335 YYZZ=            -78.6310
 XXYZ=            -10.0928 YYXZ=             -3.2636 ZZXY=              2.8961
 N-N= 4.095861114821D+02 E-N=-1.802696840278D+03  KE= 4.201287278803D+02
 No NMR shielding tensors so no spin-rotation constants.
 Leave Link  601 at Sun Nov 20 17:26:36 2022, MaxMem= 16106127360 cpu:               3.3 elap:               0.1
 (Enter /opt/ap/G16/B01/g16/l9999.exe)
 1\1\GINC-N02\SP\RwB97XD\6-311++G(d,p)\C7H6O2\ROOT\20-Nov-2022\0\\#P wB
 97XD/6-311++G(d,p) scf=maxcycle=512\\_conf012.gjf nmol_natom 1_15\\0,1
 \C\C,1,1.39016191\C,1,1.39194539,2,119.895942\C,2,1.38669027,1,119.880
 75721,3,0.70825972,0\H,2,0.98744251,1,119.71654057,3,-179.90726164,0\C
 ,1,1.48428757,2,119.93615286,4,-179.87772406,0\C,3,1.40101108,1,119.72
 36454,2,-0.26266839,0\H,3,0.9902154,1,119.1886159,2,178.85397616,0\C,4
 ,1.37899003,2,120.45785903,1,-0.48041454,0\H,4,0.9834739,2,120.3044270
 6,1,179.36166981,0\O,6,1.27459751,1,118.00615353,2,-1.25976832,0\O,6,1
 .26362572,1,118.77715367,2,179.20603801,0\H,7,0.98977053,3,119.3786157
 8,1,-178.93545741,0\H,9,0.99498061,4,119.46722635,2,-178.58826714,0\H,
 11,0.89680392,6,118.15823763,1,-210.,0\\Version=ES64L-G16RevB.01\State
 =1-A\HF=-420.742753\RMSD=7.732e-09\Dipole=0.0846875,0.2626316,1.094787
 \Quadrupole=7.7410855,-3.322376,-4.4187095,-1.910141,-1.6811078,-0.205
 941\PG=C01 [X(C7H6O2)]\\@


 A COMPUTER IS LIKE A HORSE, IT WILL SENSE WEAKNESS.
     -- GREG WETTSTEIN
 Job cpu time:       0 days  0 hours  7 minutes 21.0 seconds.
 Elapsed time:       0 days  0 hours  0 minutes 13.9 seconds.
 File lengths (MBytes):  RWF=     35 Int=      0 D2E=      0 Chk=      4 Scr=      1
 Normal termination of Gaussian 16 at Sun Nov 20 17:26:37 2022.
