 Entering Gaussian System, Link 0=g16
 Input=_conf010.gjf
 Output=_conf010.log
 Initial command:
 /opt/ap/G16/B01/g16/l1.exe "/tmp2/scr/Gau-716.inp" -scrdir="/tmp2/scr/"
 Entering Link 1 = /opt/ap/G16/B01/g16/l1.exe PID=       717.
  
 Copyright (c) 1988-2017, Gaussian, Inc.  All Rights Reserved.
  
 This is part of the Gaussian(R) 16 program.  It is based on
 the Gaussian(R) 09 system (copyright 2009, Gaussian, Inc.),
 the Gaussian(R) 03 system (copyright 2003, Gaussian, Inc.),
 the Gaussian(R) 98 system (copyright 1998, Gaussian, Inc.),
 the Gaussian(R) 94 system (copyright 1995, Gaussian, Inc.),
 the Gaussian 92(TM) system (copyright 1992, Gaussian, Inc.),
 the Gaussian 90(TM) system (copyright 1990, Gaussian, Inc.),
 the Gaussian 88(TM) system (copyright 1988, Gaussian, Inc.),
 the Gaussian 86(TM) system (copyright 1986, Carnegie Mellon
 University), and the Gaussian 82(TM) system (copyright 1983,
 Carnegie Mellon University). Gaussian is a federally registered
 trademark of Gaussian, Inc.
  
 This software contains proprietary and confidential information,
 including trade secrets, belonging to Gaussian, Inc.
  
 This software is provided under written license and may be
 used, copied, transmitted, or stored only in accord with that
 written license.
  
 The following legend is applicable only to US Government
 contracts under FAR:
  
                    RESTRICTED RIGHTS LEGEND
  
 Use, reproduction and disclosure by the US Government is
 subject to restrictions as set forth in subparagraphs (a)
 and (c) of the Commercial Computer Software - Restricted
 Rights clause in FAR 52.227-19.
  
 Gaussian, Inc.
 340 Quinnipiac St., Bldg. 40, Wallingford CT 06492
  
  
 ---------------------------------------------------------------
 Warning -- This program may not be used in any manner that
 competes with the business of Gaussian, Inc. or will provide
 assistance to any competitor of Gaussian, Inc.  The licensee
 of this program is prohibited from giving any competitor of
 Gaussian, Inc. access to this program.  By using this program,
 the user acknowledges that Gaussian, Inc. is engaged in the
 business of creating and licensing software in the field of
 computational chemistry and represents and warrants to the
 licensee that it is not a competitor of Gaussian, Inc. and that
 it will not use this program in any manner prohibited above.
 ---------------------------------------------------------------
  

 Cite this work as:
 Gaussian 16, Revision B.01,
 M. J. Frisch, G. W. Trucks, H. B. Schlegel, G. E. Scuseria, 
 M. A. Robb, J. R. Cheeseman, G. Scalmani, V. Barone, 
 G. A. Petersson, H. Nakatsuji, X. Li, M. Caricato, A. V. Marenich, 
 J. Bloino, B. G. Janesko, R. Gomperts, B. Mennucci, H. P. Hratchian, 
 J. V. Ortiz, A. F. Izmaylov, J. L. Sonnenberg, D. Williams-Young, 
 F. Ding, F. Lipparini, F. Egidi, J. Goings, B. Peng, A. Petrone, 
 T. Henderson, D. Ranasinghe, V. G. Zakrzewski, J. Gao, N. Rega, 
 G. Zheng, W. Liang, M. Hada, M. Ehara, K. Toyota, R. Fukuda, 
 J. Hasegawa, M. Ishida, T. Nakajima, Y. Honda, O. Kitao, H. Nakai, 
 T. Vreven, K. Throssell, J. A. Montgomery, Jr., J. E. Peralta, 
 F. Ogliaro, M. J. Bearpark, J. J. Heyd, E. N. Brothers, K. N. Kudin, 
 V. N. Staroverov, T. A. Keith, R. Kobayashi, J. Normand, 
 K. Raghavachari, A. P. Rendell, J. C. Burant, S. S. Iyengar, 
 J. Tomasi, M. Cossi, J. M. Millam, M. Klene, C. Adamo, R. Cammi, 
 J. W. Ochterski, R. L. Martin, K. Morokuma, O. Farkas, 
 J. B. Foresman, and D. J. Fox, Gaussian, Inc., Wallingford CT, 2016.
 
 ******************************************
 Gaussian 16:  ES64L-G16RevB.01 20-Dec-2017
                20-Nov-2022 
 ******************************************
 %nprocshared=32
 Will use up to   32 processors via shared memory.
 %mem=120GB
 %chk=_conf010.chk
 ----------------------------------------
 #P wB97XD/6-311++G(d,p) scf=maxcycle=512
 ----------------------------------------
 1/38=1,172=1/1;
 2/12=2,17=6,18=5,40=1/2;
 3/5=4,6=6,7=1111,11=2,25=1,30=1,74=-58/1,2,3;
 4//1;
 5/5=2,7=512,38=5/2;
 6/7=2,8=2,9=2,10=2,28=1/1;
 99/5=1,9=1/99;
 Leave Link    1 at Sun Nov 20 17:26:07 2022, MaxMem= 16106127360 cpu:               1.8 elap:               0.1
 (Enter /opt/ap/G16/B01/g16/l101.exe)
 ----------------------------
 _conf010.gjf nmol_natom 1_15
 ----------------------------
 Symbolic Z-matrix:
 Charge =  0 Multiplicity = 1
 C
 C                    1     1.39016 
 C                    1     1.39195  2     119.89594 
 C                    2     1.38669  1     119.88076  3     0.70826  0
 H                    2     0.98744  1     119.71654  3    -179.90726  0
 C                    1     1.48429  2     119.93615  4    -179.87772  0
 C                    3     1.40101  1     119.72365  2    -0.26267  0
 H                    3     0.99022  1     119.18862  2     178.85398  0
 C                    4     1.37899  2     120.45786  1    -0.48041  0
 H                    4     0.98347  2     120.30443  1     179.36167  0
 O                    6     1.2746   1     118.00615  2    -1.25977  0
 O                    6     1.26363  1     118.77715  2     179.20604  0
 H                    7     0.98977  3     119.37862  1    -178.93546  0
 H                    9     0.99498  4     119.46723  2    -178.58827  0
 H                    11    0.8968   6     118.15824  1    -220.     0
 
 ITRead=  0  0  0  0  0  0  0  0  0  0  0  0  0  0  0
 MicOpt= -1 -1 -1 -1 -1 -1 -1 -1 -1 -1 -1 -1 -1 -1 -1
 NAtoms=     15 NQM=       15 NQMF=       0 NMMI=      0 NMMIF=      0
                NMic=       0 NMicF=      0.
                    Isotopes and Nuclear Properties:
 (Nuclear quadrupole moments (NQMom) in fm**2, nuclear magnetic moments (NMagM)
  in nuclear magnetons)

  Atom         1           2           3           4           5           6           7           8           9          10
 IAtWgt=          12          12          12          12           1          12          12           1          12           1
 AtmWgt=  12.0000000  12.0000000  12.0000000  12.0000000   1.0078250  12.0000000  12.0000000   1.0078250  12.0000000   1.0078250
 NucSpn=           0           0           0           0           1           0           0           1           0           1
 AtZEff=  -0.0000000  -0.0000000  -0.0000000  -0.0000000  -0.0000000  -0.0000000  -0.0000000  -0.0000000  -0.0000000  -0.0000000
 NQMom=    0.0000000   0.0000000   0.0000000   0.0000000   0.0000000   0.0000000   0.0000000   0.0000000   0.0000000   0.0000000
 NMagM=    0.0000000   0.0000000   0.0000000   0.0000000   2.7928460   0.0000000   0.0000000   2.7928460   0.0000000   2.7928460
 AtZNuc=   6.0000000   6.0000000   6.0000000   6.0000000   1.0000000   6.0000000   6.0000000   1.0000000   6.0000000   1.0000000

  Atom        11          12          13          14          15
 IAtWgt=          16          16           1           1           1
 AtmWgt=  15.9949146  15.9949146   1.0078250   1.0078250   1.0078250
 NucSpn=           0           0           1           1           1
 AtZEff=  -0.0000000  -0.0000000  -0.0000000  -0.0000000  -0.0000000
 NQMom=    0.0000000   0.0000000   0.0000000   0.0000000   0.0000000
 NMagM=    0.0000000   0.0000000   2.7928460   2.7928460   2.7928460
 AtZNuc=   8.0000000   8.0000000   1.0000000   1.0000000   1.0000000
 Leave Link  101 at Sun Nov 20 17:26:07 2022, MaxMem= 16106127360 cpu:               5.2 elap:               0.2
 (Enter /opt/ap/G16/B01/g16/l202.exe)
                          Input orientation:                          
 ---------------------------------------------------------------------
 Center     Atomic      Atomic             Coordinates (Angstroms)
 Number     Number       Type             X           Y           Z
 ---------------------------------------------------------------------
      1          6           0        0.000000    0.000000    0.000000
      2          6           0        0.000000    0.000000    1.390162
      3          6           0        1.206722    0.000000   -0.693782
      4          6           0        1.202258    0.014862    2.081006
      5          1           0       -0.857581   -0.001388    1.879646
      6          6           0       -1.286190   -0.013155   -0.740711
      7          6           0        2.415349    0.005578    0.014752
      8          1           0        1.194584   -0.017290   -1.683772
      9          6           0        2.400563    0.019708    1.398617
     10          1           0        1.209438    0.024411    3.064408
     11          8           0       -2.365984   -0.048941   -0.064425
     12          8           0       -1.260842    0.002453   -2.003986
     13          1           0        3.270315    0.021574   -0.483669
     14          1           0        3.254554    0.009066    1.909081
     15          1           0       -3.056846    0.450165   -0.343459
 ---------------------------------------------------------------------
                    Distance matrix (angstroms):
                    1          2          3          4          5
     1  C    0.000000
     2  C    1.390162   0.000000
     3  C    1.391945   2.408112   0.000000
     4  C    2.403379   1.386690   2.774832   0.000000
     5  H    2.066039   0.987443   3.299073   2.069721   0.000000
     6  C    1.484288   2.488991   2.493388   3.762345   2.655206
     7  C    2.415401   2.779513   1.401011   2.396056   3.766955
     8  H    2.064563   3.297939   0.990215   3.764924   4.112127
     9  C    2.778349   2.400659   2.409104   1.378990   3.293530
    10  H    3.294530   2.065535   3.758270   0.983474   2.382624
    11  O    2.367367   2.777786   3.628045   4.164047   2.461088
    12  O    2.367633   3.620769   2.793834   4.770133   3.904515
    13  H    3.305958   3.769173   2.074374   3.294611   4.756607
    14  H    3.773167   3.295676   3.311886   2.059493   4.112253
    15  H    3.108846   3.542936   4.301557   4.920110   3.159567
                    6          7          8          9         10
     6  C    0.000000
     7  C    3.777892   0.000000
     8  H    2.653982   2.091836   0.000000
     9  C    4.262622   1.384016   3.310118   0.000000
    10  H    4.550659   3.279477   4.748386   2.047842   0.000000
    11  O    1.274598   4.782299   3.911641   4.986499   4.751696
    12  O    1.263626   4.194007   2.476296   4.998389   5.638384
    13  H    4.563881   0.989771   2.398003   2.073517   4.103177
    14  H    5.257398   2.071897   4.141589   0.994981   2.348938
    15  H    1.872885   5.501899   4.482144   5.744862   5.476861
                   11         12         13         14         15
    11  O    0.000000
    12  O    2.232908   0.000000
    13  H    5.652309   4.779447   0.000000
    14  H    5.957225   5.975025   2.392834   0.000000
    15  H    0.896804   2.486650   6.343210   6.715822   0.000000
 Stoichiometry    C7H6O2
 Framework group  C1[X(C7H6O2)]
 Deg. of freedom    39
 Full point group                 C1      NOp   1
 Largest Abelian subgroup         C1      NOp   1
 Largest concise Abelian subgroup C1      NOp   1
                         Standard orientation:                         
 ---------------------------------------------------------------------
 Center     Atomic      Atomic             Coordinates (Angstroms)
 Number     Number       Type             X           Y           Z
 ---------------------------------------------------------------------
      1          6           0       -0.223059    0.030012   -0.003947
      2          6           0        0.439871   -1.191895   -0.008169
      3          6           0        0.506770    1.215278   -0.001653
      4          6           0        1.826085   -1.225840    0.004779
      5          1           0       -0.080499   -2.031091   -0.011176
      6          6           0       -1.706825    0.067758   -0.015049
      7          6           0        1.907007    1.168847    0.001958
      8          1           0        0.023980    2.079706   -0.015938
      9          6           0        2.553956   -0.054615    0.011883
     10          1           0        2.301367   -2.086820    0.011342
     11          8           0       -2.333478   -1.041503   -0.053056
     12          8           0       -2.286945    1.190180    0.004399
     13          1           0        2.420835    2.014610    0.019600
     14          1           0        3.548001   -0.096021   -0.000179
     15          1           0       -3.073135   -1.127065    0.446789
 ---------------------------------------------------------------------
 Rotational constants (GHZ):           3.9548629           1.2411971           0.9455770
 Leave Link  202 at Sun Nov 20 17:26:07 2022, MaxMem= 16106127360 cpu:               0.3 elap:               0.0
 (Enter /opt/ap/G16/B01/g16/l301.exe)
 Standard basis: 6-311++G(d,p) (5D, 7F)
 Ernie: Thresh=  0.10000D-02 Tol=  0.10000D-05 Strict=F.
 There are   249 symmetry adapted cartesian basis functions of A   symmetry.
 There are   240 symmetry adapted basis functions of A   symmetry.
   240 basis functions,   378 primitive gaussians,   249 cartesian basis functions
    32 alpha electrons       32 beta electrons
       nuclear repulsion energy       409.6196025162 Hartrees.
 IExCor= 4639 DFT=T Ex+Corr=wB97XD ExCW=0 ScaHFX=  1.000000
 ScaDFX=  1.000000  1.000000  1.000000  1.000000 ScalE2=  1.000000  1.000000
 IRadAn=      5 IRanWt=     -1 IRanGd=            0 ICorTp=0 IEmpDi=121
 HFx  wShort=  0.000000 wLong=  0.200000 cFull=  0.222036 cShort=  0.000000 cLong=  0.777964
 DFx  wShort=  0.000000 wLong=  0.200000 cFull=  0.000000 cShort=  0.000000 cLong=  1.000000
 NAtoms=   15 NActive=   15 NUniq=   15 SFac= 1.00D+00 NAtFMM=   60 NAOKFM=F Big=F
 Integral buffers will be    131072 words long.
 Raffenetti 2 integral format.
 Two-electron integral symmetry is turned on.
 R6Disp:  Grimme-D2 Dispersion energy=       -0.0063846233 Hartrees.
 Nuclear repulsion after empirical dispersion term =      409.6132178929 Hartrees.
 Leave Link  301 at Sun Nov 20 17:26:07 2022, MaxMem= 16106127360 cpu:               1.2 elap:               0.0
 (Enter /opt/ap/G16/B01/g16/l302.exe)
 NPDir=0 NMtPBC=     1 NCelOv=     1 NCel=       1 NClECP=     1 NCelD=      1
         NCelK=      1 NCelE2=     1 NClLst=     1 CellRange=     0.0.
 One-electron integrals computed using PRISM.
 One-electron integral symmetry used in STVInt
 NBasis=   240 RedAO= T EigKep=  1.22D-06  NBF=   240
 NBsUse=   240 1.00D-06 EigRej= -1.00D+00 NBFU=   240
 Precomputing XC quadrature grid using
 IXCGrd= 4 IRadAn=           5 IRanWt=          -1 IRanGd=           0 AccXCQ= 0.00D+00.
 Generated NRdTot=       0 NPtTot=           0 NUsed=           0 NTot=          32
 NSgBfM=   249   249   249   249   249 MxSgAt=    15 MxSgA2=    15.
 Leave Link  302 at Sun Nov 20 17:26:07 2022, MaxMem= 16106127360 cpu:               5.3 elap:               0.2
 (Enter /opt/ap/G16/B01/g16/l303.exe)
 DipDrv:  MaxL=1.
 Leave Link  303 at Sun Nov 20 17:26:08 2022, MaxMem= 16106127360 cpu:               1.3 elap:               0.0
 (Enter /opt/ap/G16/B01/g16/l401.exe)
 ExpMin= 3.60D-02 ExpMax= 8.59D+03 ExpMxC= 1.30D+03 IAcc=3 IRadAn=         5 AccDes= 0.00D+00
 Harris functional with IExCor= 4639 and IRadAn=       5 diagonalized for initial guess.
 HarFok:  IExCor= 4639 AccDes= 0.00D+00 IRadAn=         5 IDoV= 1 UseB2=F ITyADJ=14
 ICtDFT=  3500011 ScaDFX=  1.000000  1.000000  1.000000  1.000000
 FoFCou: FMM=F IPFlag=           0 FMFlag=      100000 FMFlg1=           0
         NFxFlg=           0 DoJE=T BraDBF=F KetDBF=T FulRan=T
         wScrn=  0.000000 ICntrl=       500 IOpCl=  0 I1Cent=   200000004 NGrid=           0
         NMat0=    1 NMatS0=      1 NMatT0=    0 NMatD0=    1 NMtDS0=    0 NMtDT0=    0
 Petite list used in FoFCou.
 Harris En= -403.248203071185    
 JPrj=0 DoOrth=F DoCkMO=F.
 Leave Link  401 at Sun Nov 20 17:26:08 2022, MaxMem= 16106127360 cpu:              12.9 elap:               0.4
 (Enter /opt/ap/G16/B01/g16/l502.exe)
 Integral symmetry usage will be decided dynamically.
 Closed shell SCF:
 Using DIIS extrapolation, IDIIS=  1040.
 NGot= 16106127360 LenX= 16105992971 LenY= 16105930529
 Requested convergence on RMS density matrix=1.00D-08 within 512 cycles.
 Requested convergence on MAX density matrix=1.00D-06.
 Requested convergence on             energy=1.00D-06.
 No special actions if energy rises.
 Fock matrices will be formed incrementally for  20 cycles.

 Cycle   1  Pass 1  IDiag  1:
 FoFJK:  IHMeth= 1 ICntrl=       0 DoSepK=T KAlg= 0 I1Cent=           0 FoldK=F
 IRaf=         1 NMat=       1 IRICut=       1 DoRegI=T DoRafI=F ISym2E= 0 IDoP0=0 IntGTp=1.
 FoFCou: FMM=F IPFlag=           0 FMFlag=      100000 FMFlg1=           0
         NFxFlg=           0 DoJE=T BraDBF=F KetDBF=F FulRan=T
         wScrn=  0.000000 ICntrl=       500 IOpCl=  0 I1Cent=           0 NGrid=           0
         NMat0=    1 NMatS0=      1 NMatT0=    0 NMatD0=    1 NMtDS0=    0 NMtDT0=    0
 Symmetry not used in FoFCou.
 E= -420.626873796036    
 DIIS: error= 6.86D-02 at cycle   1 NSaved=   1.
 NSaved= 1 IEnMin= 1 EnMin= -420.626873796036     IErMin= 1 ErrMin= 6.86D-02
 ErrMax= 6.86D-02  0.00D+00 EMaxC= 1.00D-01 BMatC= 8.58D-01 BMatP= 8.58D-01
 IDIUse=3 WtCom= 3.14D-01 WtEn= 6.86D-01
 Coeff-Com:  0.100D+01
 Coeff-En:   0.100D+01
 Coeff:      0.100D+01
 Gap=     0.425 Goal=   None    Shift=    0.000
 GapD=    0.425 DampG=2.000 DampE=0.500 DampFc=1.0000 IDamp=-1.
 RMSDP=3.11D-02 MaxDP=2.36D+00              OVMax= 1.03D-01

 Cycle   2  Pass 1  IDiag  1:
 RMSU=  1.51D-02    CP:  6.58D-01
 E= -420.699066006912     Delta-E=       -0.072192210876 Rises=F Damp=F
 DIIS: error= 1.15D-02 at cycle   2 NSaved=   2.
 NSaved= 2 IEnMin= 2 EnMin= -420.699066006912     IErMin= 2 ErrMin= 1.15D-02
 ErrMax= 1.15D-02  0.00D+00 EMaxC= 1.00D-01 BMatC= 5.20D-02 BMatP= 8.58D-01
 IDIUse=3 WtCom= 8.85D-01 WtEn= 1.15D-01
 Coeff-Com:  0.129D+00 0.871D+00
 Coeff-En:   0.648D-01 0.935D+00
 Coeff:      0.122D+00 0.878D+00
 Gap=     0.422 Goal=   None    Shift=    0.000
 RMSDP=7.57D-03 MaxDP=5.40D-01 DE=-7.22D-02 OVMax= 7.03D-02

 Cycle   3  Pass 1  IDiag  1:
 RMSU=  6.13D-03    CP:  6.34D-01  7.35D-01
 E= -420.715741860295     Delta-E=       -0.016675853383 Rises=F Damp=F
 DIIS: error= 1.03D-02 at cycle   3 NSaved=   3.
 NSaved= 3 IEnMin= 3 EnMin= -420.715741860295     IErMin= 3 ErrMin= 1.03D-02
 ErrMax= 1.03D-02  0.00D+00 EMaxC= 1.00D-01 BMatC= 3.02D-02 BMatP= 5.20D-02
 IDIUse=3 WtCom= 8.97D-01 WtEn= 1.03D-01
 Coeff-Com:  0.258D-01 0.439D+00 0.535D+00
 Coeff-En:   0.000D+00 0.365D+00 0.635D+00
 Coeff:      0.231D-01 0.431D+00 0.545D+00
 Gap=     0.359 Goal=   None    Shift=    0.000
 RMSDP=3.34D-03 MaxDP=1.79D-01 DE=-1.67D-02 OVMax= 4.49D-02

 Cycle   4  Pass 1  IDiag  1:
 RMSU=  1.59D-03    CP:  6.21D-01  8.69D-01  6.94D-01
 E= -420.738647571979     Delta-E=       -0.022905711684 Rises=F Damp=F
 DIIS: error= 2.27D-03 at cycle   4 NSaved=   4.
 NSaved= 4 IEnMin= 4 EnMin= -420.738647571979     IErMin= 4 ErrMin= 2.27D-03
 ErrMax= 2.27D-03  0.00D+00 EMaxC= 1.00D-01 BMatC= 1.46D-03 BMatP= 3.02D-02
 IDIUse=3 WtCom= 9.77D-01 WtEn= 2.27D-02
 Coeff-Com:  0.103D-01 0.220D+00 0.305D+00 0.464D+00
 Coeff-En:   0.000D+00 0.000D+00 0.000D+00 0.100D+01
 Coeff:      0.101D-01 0.215D+00 0.298D+00 0.477D+00
 Gap=     0.346 Goal=   None    Shift=    0.000
 RMSDP=9.51D-04 MaxDP=6.37D-02 DE=-2.29D-02 OVMax= 1.05D-02

 Cycle   5  Pass 1  IDiag  1:
 RMSU=  6.86D-04    CP:  6.16D-01  8.53D-01  7.31D-01  7.56D-01
 E= -420.739640122506     Delta-E=       -0.000992550527 Rises=F Damp=F
 DIIS: error= 4.29D-04 at cycle   5 NSaved=   5.
 NSaved= 5 IEnMin= 5 EnMin= -420.739640122506     IErMin= 5 ErrMin= 4.29D-04
 ErrMax= 4.29D-04  0.00D+00 EMaxC= 1.00D-01 BMatC= 4.81D-05 BMatP= 1.46D-03
 IDIUse=3 WtCom= 9.96D-01 WtEn= 4.29D-03
 Coeff-Com:  0.256D-03 0.138D-01 0.284D-01 0.160D+00 0.798D+00
 Coeff-En:   0.000D+00 0.000D+00 0.000D+00 0.000D+00 0.100D+01
 Coeff:      0.255D-03 0.138D-01 0.283D-01 0.159D+00 0.799D+00
 Gap=     0.346 Goal=   None    Shift=    0.000
 RMSDP=2.27D-04 MaxDP=1.28D-02 DE=-9.93D-04 OVMax= 2.38D-03

 Cycle   6  Pass 1  IDiag  1:
 RMSU=  1.25D-04    CP:  6.14D-01  8.57D-01  7.47D-01  7.67D-01  1.03D+00
 E= -420.739678136730     Delta-E=       -0.000038014224 Rises=F Damp=F
 DIIS: error= 1.72D-04 at cycle   6 NSaved=   6.
 NSaved= 6 IEnMin= 6 EnMin= -420.739678136730     IErMin= 6 ErrMin= 1.72D-04
 ErrMax= 1.72D-04  0.00D+00 EMaxC= 1.00D-01 BMatC= 7.10D-06 BMatP= 4.81D-05
 IDIUse=3 WtCom= 9.98D-01 WtEn= 1.72D-03
 Coeff-Com: -0.990D-03-0.173D-01-0.192D-01 0.167D-01 0.350D+00 0.671D+00
 Coeff-En:   0.000D+00 0.000D+00 0.000D+00 0.000D+00 0.000D+00 0.100D+01
 Coeff:     -0.988D-03-0.173D-01-0.192D-01 0.166D-01 0.349D+00 0.672D+00
 Gap=     0.346 Goal=   None    Shift=    0.000
 RMSDP=1.60D-04 MaxDP=1.31D-02 DE=-3.80D-05 OVMax= 8.30D-04

 Cycle   7  Pass 1  IDiag  1:
 RMSU=  3.94D-05    CP:  6.12D-01  8.55D-01  7.58D-01  7.71D-01  1.12D+00
                    CP:  1.07D+00
 E= -420.739685048971     Delta-E=       -0.000006912240 Rises=F Damp=F
 DIIS: error= 7.04D-05 at cycle   7 NSaved=   7.
 NSaved= 7 IEnMin= 7 EnMin= -420.739685048971     IErMin= 7 ErrMin= 7.04D-05
 ErrMax= 7.04D-05  0.00D+00 EMaxC= 1.00D-01 BMatC= 3.05D-07 BMatP= 7.10D-06
 IDIUse=1 WtCom= 1.00D+00 WtEn= 0.00D+00
 Coeff-Com: -0.250D-03-0.577D-02-0.733D-02-0.141D-01 0.511D-02 0.142D+00
 Coeff-Com:  0.881D+00
 Coeff:     -0.250D-03-0.577D-02-0.733D-02-0.141D-01 0.511D-02 0.142D+00
 Coeff:      0.881D+00
 Gap=     0.346 Goal=   None    Shift=    0.000
 RMSDP=4.42D-05 MaxDP=2.40D-03 DE=-6.91D-06 OVMax= 3.39D-04

 Cycle   8  Pass 1  IDiag  1:
 RMSU=  1.52D-05    CP:  6.12D-01  8.54D-01  7.60D-01  7.70D-01  1.17D+00
                    CP:  1.11D+00  1.08D+00
 E= -420.739685622727     Delta-E=       -0.000000573756 Rises=F Damp=F
 DIIS: error= 1.59D-05 at cycle   8 NSaved=   8.
 NSaved= 8 IEnMin= 8 EnMin= -420.739685622727     IErMin= 8 ErrMin= 1.59D-05
 ErrMax= 1.59D-05  0.00D+00 EMaxC= 1.00D-01 BMatC= 4.25D-08 BMatP= 3.05D-07
 IDIUse=1 WtCom= 1.00D+00 WtEn= 0.00D+00
 Coeff-Com:  0.282D-04 0.199D-03 0.369D-04-0.661D-02-0.370D-01-0.360D-01
 Coeff-Com:  0.248D+00 0.831D+00
 Coeff:      0.282D-04 0.199D-03 0.369D-04-0.661D-02-0.370D-01-0.360D-01
 Coeff:      0.248D+00 0.831D+00
 Gap=     0.346 Goal=   None    Shift=    0.000
 RMSDP=1.48D-05 MaxDP=7.73D-04 DE=-5.74D-07 OVMax= 1.29D-04

 Cycle   9  Pass 1  IDiag  1:
 RMSU=  5.08D-06    CP:  6.12D-01  8.54D-01  7.61D-01  7.66D-01  1.19D+00
                    CP:  1.13D+00  1.16D+00  1.24D+00
 E= -420.739685697873     Delta-E=       -0.000000075146 Rises=F Damp=F
 DIIS: error= 1.10D-05 at cycle   9 NSaved=   9.
 NSaved= 9 IEnMin= 9 EnMin= -420.739685697873     IErMin= 9 ErrMin= 1.10D-05
 ErrMax= 1.10D-05  0.00D+00 EMaxC= 1.00D-01 BMatC= 5.52D-09 BMatP= 4.25D-08
 IDIUse=1 WtCom= 1.00D+00 WtEn= 0.00D+00
 Coeff-Com:  0.401D-04 0.767D-03 0.916D-03-0.631D-03-0.115D-01-0.291D-01
 Coeff-Com: -0.214D-01 0.269D+00 0.792D+00
 Coeff:      0.401D-04 0.767D-03 0.916D-03-0.631D-03-0.115D-01-0.291D-01
 Coeff:     -0.214D-01 0.269D+00 0.792D+00
 Gap=     0.346 Goal=   None    Shift=    0.000
 RMSDP=5.08D-06 MaxDP=2.73D-04 DE=-7.51D-08 OVMax= 5.07D-05

 Cycle  10  Pass 1  IDiag  1:
 RMSU=  1.64D-06    CP:  6.12D-01  8.54D-01  7.60D-01  7.64D-01  1.19D+00
                    CP:  1.13D+00  1.18D+00  1.34D+00  1.23D+00
 E= -420.739685707090     Delta-E=       -0.000000009217 Rises=F Damp=F
 DIIS: error= 1.50D-06 at cycle  10 NSaved=  10.
 NSaved=10 IEnMin=10 EnMin= -420.739685707090     IErMin=10 ErrMin= 1.50D-06
 ErrMax= 1.50D-06  0.00D+00 EMaxC= 1.00D-01 BMatC= 7.41D-10 BMatP= 5.52D-09
 IDIUse=1 WtCom= 1.00D+00 WtEn= 0.00D+00
 Coeff-Com:  0.857D-05 0.186D-03 0.243D-03 0.406D-03 0.904D-03-0.535D-02
 Coeff-Com: -0.318D-01-0.144D-01 0.251D+00 0.799D+00
 Coeff:      0.857D-05 0.186D-03 0.243D-03 0.406D-03 0.904D-03-0.535D-02
 Coeff:     -0.318D-01-0.144D-01 0.251D+00 0.799D+00
 Gap=     0.346 Goal=   None    Shift=    0.000
 RMSDP=1.77D-06 MaxDP=1.25D-04 DE=-9.22D-09 OVMax= 1.59D-05

 Cycle  11  Pass 1  IDiag  1:
 RMSU=  3.91D-07    CP:  6.12D-01  8.54D-01  7.60D-01  7.64D-01  1.19D+00
                    CP:  1.13D+00  1.18D+00  1.39D+00  1.35D+00  1.17D+00
 E= -420.739685708254     Delta-E=       -0.000000001164 Rises=F Damp=F
 DIIS: error= 7.42D-07 at cycle  11 NSaved=  11.
 NSaved=11 IEnMin=11 EnMin= -420.739685708254     IErMin=11 ErrMin= 7.42D-07
 ErrMax= 7.42D-07  0.00D+00 EMaxC= 1.00D-01 BMatC= 1.13D-10 BMatP= 7.41D-10
 IDIUse=1 WtCom= 1.00D+00 WtEn= 0.00D+00
 Coeff-Com: -0.184D-05-0.174D-04-0.809D-05 0.268D-03 0.204D-02 0.152D-02
 Coeff-Com: -0.871D-02-0.471D-01-0.193D-01 0.295D+00 0.777D+00
 Coeff:     -0.184D-05-0.174D-04-0.809D-05 0.268D-03 0.204D-02 0.152D-02
 Coeff:     -0.871D-02-0.471D-01-0.193D-01 0.295D+00 0.777D+00
 Gap=     0.346 Goal=   None    Shift=    0.000
 RMSDP=7.49D-07 MaxDP=4.34D-05 DE=-1.16D-09 OVMax= 7.71D-06

 Cycle  12  Pass 1  IDiag  1:
 RMSU=  2.51D-07    CP:  6.12D-01  8.54D-01  7.60D-01  7.64D-01  1.19D+00
                    CP:  1.13D+00  1.19D+00  1.40D+00  1.40D+00  1.34D+00
                    CP:  1.18D+00
 E= -420.739685708436     Delta-E=       -0.000000000182 Rises=F Damp=F
 DIIS: error= 1.73D-07 at cycle  12 NSaved=  12.
 NSaved=12 IEnMin=12 EnMin= -420.739685708436     IErMin=12 ErrMin= 1.73D-07
 ErrMax= 1.73D-07  0.00D+00 EMaxC= 1.00D-01 BMatC= 9.60D-12 BMatP= 1.13D-10
 IDIUse=1 WtCom= 1.00D+00 WtEn= 0.00D+00
 Coeff-Com: -0.118D-05-0.197D-04-0.212D-04 0.371D-04 0.458D-03 0.715D-03
 Coeff-Com:  0.105D-02-0.109D-01-0.266D-01 0.360D-02 0.197D+00 0.835D+00
 Coeff:     -0.118D-05-0.197D-04-0.212D-04 0.371D-04 0.458D-03 0.715D-03
 Coeff:      0.105D-02-0.109D-01-0.266D-01 0.360D-02 0.197D+00 0.835D+00
 Gap=     0.346 Goal=   None    Shift=    0.000
 RMSDP=1.37D-07 MaxDP=9.28D-06 DE=-1.82D-10 OVMax= 3.55D-06

 Cycle  13  Pass 1  IDiag  1:
 RMSU=  6.34D-08    CP:  6.12D-01  8.54D-01  7.60D-01  7.64D-01  1.19D+00
                    CP:  1.13D+00  1.19D+00  1.40D+00  1.41D+00  1.36D+00
                    CP:  1.26D+00  1.01D+00
 E= -420.739685708465     Delta-E=       -0.000000000029 Rises=F Damp=F
 DIIS: error= 9.17D-08 at cycle  13 NSaved=  13.
 NSaved=13 IEnMin=13 EnMin= -420.739685708465     IErMin=13 ErrMin= 9.17D-08
 ErrMax= 9.17D-08  0.00D+00 EMaxC= 1.00D-01 BMatC= 1.64D-12 BMatP= 9.60D-12
 IDIUse=1 WtCom= 1.00D+00 WtEn= 0.00D+00
 Coeff-Com:  0.595D-07-0.376D-05-0.688D-05-0.459D-04-0.289D-03-0.138D-03
 Coeff-Com:  0.210D-02 0.627D-02-0.267D-02-0.573D-01-0.113D+00 0.193D+00
 Coeff-Com:  0.972D+00
 Coeff:      0.595D-07-0.376D-05-0.688D-05-0.459D-04-0.289D-03-0.138D-03
 Coeff:      0.210D-02 0.627D-02-0.267D-02-0.573D-01-0.113D+00 0.193D+00
 Coeff:      0.972D+00
 Gap=     0.346 Goal=   None    Shift=    0.000
 RMSDP=7.71D-08 MaxDP=6.95D-06 DE=-2.86D-11 OVMax= 2.55D-06

 Cycle  14  Pass 1  IDiag  1:
 RMSU=  2.56D-08    CP:  6.12D-01  8.54D-01  7.60D-01  7.64D-01  1.19D+00
                    CP:  1.13D+00  1.19D+00  1.40D+00  1.41D+00  1.37D+00
                    CP:  1.31D+00  1.11D+00  1.37D+00
 E= -420.739685708475     Delta-E=       -0.000000000010 Rises=F Damp=F
 DIIS: error= 4.25D-08 at cycle  14 NSaved=  14.
 NSaved=14 IEnMin=14 EnMin= -420.739685708475     IErMin=14 ErrMin= 4.25D-08
 ErrMax= 4.25D-08  0.00D+00 EMaxC= 1.00D-01 BMatC= 1.73D-13 BMatP= 1.64D-12
 IDIUse=1 WtCom= 1.00D+00 WtEn= 0.00D+00
 Coeff-Com:  0.104D-06 0.199D-05 0.222D-05-0.530D-05-0.731D-04-0.603D-04
 Coeff-Com: -0.316D-04 0.151D-02 0.266D-02-0.389D-02-0.259D-01-0.858D-01
 Coeff-Com:  0.353D-01 0.108D+01
 Coeff:      0.104D-06 0.199D-05 0.222D-05-0.530D-05-0.731D-04-0.603D-04
 Coeff:     -0.316D-04 0.151D-02 0.266D-02-0.389D-02-0.259D-01-0.858D-01
 Coeff:      0.353D-01 0.108D+01
 Gap=     0.346 Goal=   None    Shift=    0.000
 RMSDP=2.76D-08 MaxDP=1.72D-06 DE=-1.05D-11 OVMax= 1.05D-06

 Cycle  15  Pass 1  IDiag  1:
 RMSU=  8.62D-09    CP:  6.12D-01  8.54D-01  7.60D-01  7.64D-01  1.19D+00
                    CP:  1.13D+00  1.19D+00  1.40D+00  1.41D+00  1.37D+00
                    CP:  1.30D+00  1.10D+00  1.57D+00  1.34D+00
 E= -420.739685708473     Delta-E=        0.000000000003 Rises=F Damp=F
 DIIS: error= 2.30D-08 at cycle  15 NSaved=  15.
 NSaved=15 IEnMin=14 EnMin= -420.739685708475     IErMin=15 ErrMin= 2.30D-08
 ErrMax= 2.30D-08  0.00D+00 EMaxC= 1.00D-01 BMatC= 4.47D-14 BMatP= 1.73D-13
 IDIUse=1 WtCom= 1.00D+00 WtEn= 0.00D+00
 Coeff-Com:  0.226D-07 0.124D-05 0.185D-05 0.548D-05 0.188D-04 0.971D-05
 Coeff-Com: -0.340D-03-0.415D-03 0.132D-02 0.772D-02 0.911D-02-0.559D-01
 Coeff-Com: -0.144D+00 0.374D+00 0.808D+00
 Coeff:      0.226D-07 0.124D-05 0.185D-05 0.548D-05 0.188D-04 0.971D-05
 Coeff:     -0.340D-03-0.415D-03 0.132D-02 0.772D-02 0.911D-02-0.559D-01
 Coeff:     -0.144D+00 0.374D+00 0.808D+00
 Gap=     0.346 Goal=   None    Shift=    0.000
 RMSDP=8.33D-09 MaxDP=3.91D-07 DE= 2.61D-12 OVMax= 3.25D-07

 SCF Done:  E(RwB97XD) =  -420.739685708     A.U. after   15 cycles
            NFock= 15  Conv=0.83D-08     -V/T= 2.0014
 KE= 4.201339670034D+02 PE=-1.802756328658D+03 EE= 5.522694580530D+02
 Leave Link  502 at Sun Nov 20 17:26:21 2022, MaxMem= 16106127360 cpu:             408.6 elap:              12.8
 (Enter /opt/ap/G16/B01/g16/l601.exe)
 Copying SCF densities to generalized density rwf, IOpCl= 0 IROHF=0.

 **********************************************************************

            Population analysis using the SCF Density.

 **********************************************************************

 Orbital symmetries:
       Occupied  (A) (A) (A) (A) (A) (A) (A) (A) (A) (A) (A) (A)
                 (A) (A) (A) (A) (A) (A) (A) (A) (A) (A) (A) (A)
                 (A) (A) (A) (A) (A) (A) (A) (A)
       Virtual   (A) (A) (A) (A) (A) (A) (A) (A) (A) (A) (A) (A)
                 (A) (A) (A) (A) (A) (A) (A) (A) (A) (A) (A) (A)
                 (A) (A) (A) (A) (A) (A) (A) (A) (A) (A) (A) (A)
                 (A) (A) (A) (A) (A) (A) (A) (A) (A) (A) (A) (A)
                 (A) (A) (A) (A) (A) (A) (A) (A) (A) (A) (A) (A)
                 (A) (A) (A) (A) (A) (A) (A) (A) (A) (A) (A) (A)
                 (A) (A) (A) (A) (A) (A) (A) (A) (A) (A) (A) (A)
                 (A) (A) (A) (A) (A) (A) (A) (A) (A) (A) (A) (A)
                 (A) (A) (A) (A) (A) (A) (A) (A) (A) (A) (A) (A)
                 (A) (A) (A) (A) (A) (A) (A) (A) (A) (A) (A) (A)
                 (A) (A) (A) (A) (A) (A) (A) (A) (A) (A) (A) (A)
                 (A) (A) (A) (A) (A) (A) (A) (A) (A) (A) (A) (A)
                 (A) (A) (A) (A) (A) (A) (A) (A) (A) (A) (A) (A)
                 (A) (A) (A) (A) (A) (A) (A) (A) (A) (A) (A) (A)
                 (A) (A) (A) (A) (A) (A) (A) (A) (A) (A) (A) (A)
                 (A) (A) (A) (A) (A) (A) (A) (A) (A) (A) (A) (A)
                 (A) (A) (A) (A) (A) (A) (A) (A) (A) (A) (A) (A)
                 (A) (A) (A) (A)
 The electronic state is 1-A.
 Alpha  occ. eigenvalues --  -19.31010 -19.23026 -10.43160 -10.30965 -10.29357
 Alpha  occ. eigenvalues --  -10.29323 -10.29242 -10.29029 -10.28777  -1.25460
 Alpha  occ. eigenvalues --   -1.10712  -0.98092  -0.88814  -0.87047  -0.80255
 Alpha  occ. eigenvalues --   -0.73414  -0.72077  -0.66003  -0.60939  -0.58626
 Alpha  occ. eigenvalues --   -0.56731  -0.56067  -0.54123  -0.53508  -0.48387
 Alpha  occ. eigenvalues --   -0.47380  -0.45368  -0.44519  -0.41374  -0.36146
 Alpha  occ. eigenvalues --   -0.34695  -0.34344
 Alpha virt. eigenvalues --    0.00287   0.03644   0.04243   0.04499   0.05270
 Alpha virt. eigenvalues --    0.06493   0.07817   0.08709   0.10188   0.10940
 Alpha virt. eigenvalues --    0.11857   0.12931   0.13297   0.14248   0.14591
 Alpha virt. eigenvalues --    0.16004   0.16357   0.16925   0.17370   0.17941
 Alpha virt. eigenvalues --    0.18149   0.19450   0.20038   0.20100   0.20471
 Alpha virt. eigenvalues --    0.21155   0.21542   0.21729   0.23378   0.23909
 Alpha virt. eigenvalues --    0.25537   0.26297   0.26955   0.27672   0.28053
 Alpha virt. eigenvalues --    0.29620   0.29894   0.30639   0.31088   0.32102
 Alpha virt. eigenvalues --    0.32234   0.33447   0.34471   0.35399   0.35967
 Alpha virt. eigenvalues --    0.36188   0.37177   0.37978   0.39461   0.39926
 Alpha virt. eigenvalues --    0.41633   0.42043   0.42532   0.44108   0.45839
 Alpha virt. eigenvalues --    0.46747   0.50141   0.53370   0.54663   0.57758
 Alpha virt. eigenvalues --    0.59515   0.60244   0.61902   0.63726   0.63956
 Alpha virt. eigenvalues --    0.64376   0.64992   0.65919   0.66053   0.69089
 Alpha virt. eigenvalues --    0.70084   0.72260   0.73932   0.74245   0.75178
 Alpha virt. eigenvalues --    0.76724   0.80905   0.82425   0.83432   0.86225
 Alpha virt. eigenvalues --    0.88542   0.90274   0.92875   0.93713   0.94651
 Alpha virt. eigenvalues --    0.96258   0.96862   0.97782   0.99780   1.00534
 Alpha virt. eigenvalues --    1.03752   1.07251   1.07880   1.09674   1.10796
 Alpha virt. eigenvalues --    1.14215   1.14936   1.16051   1.16510   1.18583
 Alpha virt. eigenvalues --    1.21213   1.21476   1.24240   1.27645   1.29188
 Alpha virt. eigenvalues --    1.34483   1.41128   1.43980   1.45733   1.54814
 Alpha virt. eigenvalues --    1.58230   1.58956   1.60551   1.60962   1.62279
 Alpha virt. eigenvalues --    1.62840   1.66145   1.67004   1.67644   1.74864
 Alpha virt. eigenvalues --    1.75061   1.77291   1.78981   1.83185   1.87764
 Alpha virt. eigenvalues --    1.87893   1.90993   1.91687   1.94375   2.00246
 Alpha virt. eigenvalues --    2.00356   2.01849   2.03507   2.04454   2.05260
 Alpha virt. eigenvalues --    2.07295   2.10330   2.15500   2.17970   2.19412
 Alpha virt. eigenvalues --    2.23139   2.28206   2.29239   2.42727   2.45967
 Alpha virt. eigenvalues --    2.51958   2.53714   2.54461   2.57201   2.58684
 Alpha virt. eigenvalues --    2.71284   2.72663   2.75189   2.77505   2.81022
 Alpha virt. eigenvalues --    2.81697   2.83047   2.88199   2.89570   2.90504
 Alpha virt. eigenvalues --    2.90659   2.91796   2.96183   2.99696   3.00299
 Alpha virt. eigenvalues --    3.04877   3.05509   3.06402   3.15516   3.18661
 Alpha virt. eigenvalues --    3.18799   3.23083   3.28253   3.31827   3.38465
 Alpha virt. eigenvalues --    3.40172   3.45474   3.48468   3.50358   3.63470
 Alpha virt. eigenvalues --    3.66326   3.68710   3.74163   3.84351   3.87660
 Alpha virt. eigenvalues --    4.03684   4.17147   4.28343   4.30716   4.36649
 Alpha virt. eigenvalues --    4.40304   4.45009   4.94883   5.11460   5.15559
 Alpha virt. eigenvalues --    5.30435   5.47285   5.82819   6.07934  23.83972
 Alpha virt. eigenvalues --   23.94584  24.14108  24.21327  24.28302  24.30378
 Alpha virt. eigenvalues --   24.41790  50.04474  50.16486
          Condensed to atoms (all electrons):
               1          2          3          4          5          6
     1  C   10.189327  -2.800072  -1.741048   1.995223  -0.040183  -2.051291
     2  C   -2.800072  16.239815  -1.939772  -5.224641   0.733789  -0.788614
     3  C   -1.741048  -1.939772  13.076930   0.099798  -0.055597  -0.649444
     4  C    1.995223  -5.224641   0.099798   8.754133  -0.185948   0.037728
     5  H   -0.040183   0.733789  -0.055597  -0.185948   0.488697  -0.129641
     6  C   -2.051291  -0.788614  -0.649444   0.037728  -0.129641   8.405682
     7  C    0.984766  -0.432634  -3.613917   0.805562   0.009823   0.279474
     8  H   -0.032108   0.025646   0.550728  -0.015607   0.000322  -0.067058
     9  C   -1.180043   1.466704   1.120506  -0.862294   0.036076  -0.141426
    10  H    0.042163  -0.152914   0.024552   0.456903  -0.013719   0.019082
    11  O   -0.220158  -0.236011  -0.040851   0.077839  -0.045018   0.468876
    12  O   -0.224434  -0.101887  -0.055685   0.059110  -0.006353   0.622526
    13  H    0.031550   0.005985  -0.134092   0.003324   0.000200   0.016719
    14  H    0.008451   0.020795   0.009220  -0.060778   0.001320  -0.013662
    15  H   -0.032685   0.001343   0.002973  -0.017079   0.000714   0.035959
               7          8          9         10         11         12
     1  C    0.984766  -0.032108  -1.180043   0.042163  -0.220158  -0.224434
     2  C   -0.432634   0.025646   1.466704  -0.152914  -0.236011  -0.101887
     3  C   -3.613917   0.550728   1.120506   0.024552  -0.040851  -0.055685
     4  C    0.805562  -0.015607  -0.862294   0.456903   0.077839   0.059110
     5  H    0.009823   0.000322   0.036076  -0.013719  -0.045018  -0.006353
     6  C    0.279474  -0.067058  -0.141426   0.019082   0.468876   0.622526
     7  C    8.254483  -0.115947  -0.767779  -0.005556   0.068038   0.124554
     8  H   -0.115947   0.432276   0.027566   0.000247  -0.005888  -0.008529
     9  C   -0.767779   0.027566   6.492375  -0.048277  -0.039066  -0.023688
    10  H   -0.005556   0.000247  -0.048277   0.473725   0.003635   0.000705
    11  O    0.068038  -0.005888  -0.039066   0.003635   7.991328  -0.128238
    12  O    0.124554  -0.008529  -0.023688   0.000705  -0.128238   8.060545
    13  H    0.451049  -0.009614  -0.040433  -0.000878   0.001242   0.002025
    14  H   -0.044251   0.000695   0.435752  -0.007873  -0.000647  -0.000446
    15  H    0.010436  -0.000418  -0.003198  -0.000034   0.286872   0.001133
              13         14         15
     1  C    0.031550   0.008451  -0.032685
     2  C    0.005985   0.020795   0.001343
     3  C   -0.134092   0.009220   0.002973
     4  C    0.003324  -0.060778  -0.017079
     5  H    0.000200   0.001320   0.000714
     6  C    0.016719  -0.013662   0.035959
     7  C    0.451049  -0.044251   0.010436
     8  H   -0.009614   0.000695  -0.000418
     9  C   -0.040433   0.435752  -0.003198
    10  H   -0.000878  -0.007873  -0.000034
    11  O    0.001242  -0.000647   0.286872
    12  O    0.002025  -0.000446   0.001133
    13  H    0.465789  -0.006888   0.000137
    14  H   -0.006888   0.471059  -0.000102
    15  H    0.000137  -0.000102   0.392995
 Mulliken charges:
               1
     1  C    1.070543
     2  C   -0.817532
     3  C   -0.654302
     4  C    0.076726
     5  H    0.205517
     6  C   -0.044908
     7  C   -0.008100
     8  H    0.217687
     9  C   -0.472775
    10  H    0.208239
    11  O   -0.181951
    12  O   -0.321338
    13  H    0.213885
    14  H    0.187355
    15  H    0.320953
 Sum of Mulliken charges =  -0.00000
 Mulliken charges with hydrogens summed into heavy atoms:
               1
     1  C    1.070543
     2  C   -0.612015
     3  C   -0.436614
     4  C    0.284966
     6  C   -0.044908
     7  C    0.205785
     9  C   -0.285420
    11  O    0.139002
    12  O   -0.321338
 Electronic spatial extent (au):  <R**2>=           1156.9867
 Charge=             -0.0000 electrons
 Dipole moment (field-independent basis, Debye):
    X=              1.6457    Y=             -2.3715    Z=              0.8680  Tot=              3.0142
 Quadrupole moment (field-independent basis, Debye-Ang):
   XX=            -45.4411   YY=            -49.4843   ZZ=            -53.5834
   XY=              8.0786   XZ=             -3.0716   YZ=             -1.2973
 Traceless Quadrupole moment (field-independent basis, Debye-Ang):
   XX=              4.0618   YY=              0.0187   ZZ=             -4.0805
   XY=              8.0786   XZ=             -3.0716   YZ=             -1.2973
 Octapole moment (field-independent basis, Debye-Ang**2):
  XXX=            -10.6649  YYY=             -4.7452  ZZZ=              0.4325  XYY=              6.2582
  XXY=            -25.5649  XXZ=             10.1365  XZZ=            -12.8315  YZZ=             -0.9569
  YYZ=              1.4153  XYZ=              4.1893
 Hexadecapole moment (field-independent basis, Debye-Ang**3):
 XXXX=           -915.9700 YYYY=           -358.3618 ZZZZ=            -58.6954 XXXY=             84.1535
 XXXZ=            -33.4674 YYYX=             17.9322 YYYZ=             -2.4191 ZZZX=             -2.2612
 ZZZY=             -0.9238 XXYY=           -231.4550 XXZZ=           -189.5306 YYZZ=            -78.3552
 XXYZ=            -12.8642 YYXZ=             -4.5951 ZZXY=              3.6046
 N-N= 4.096132178929D+02 E-N=-1.802756328913D+03  KE= 4.201339670034D+02
 No NMR shielding tensors so no spin-rotation constants.
 Leave Link  601 at Sun Nov 20 17:26:21 2022, MaxMem= 16106127360 cpu:               3.3 elap:               0.1
 (Enter /opt/ap/G16/B01/g16/l9999.exe)
 1\1\GINC-N05\SP\RwB97XD\6-311++G(d,p)\C7H6O2\ROOT\20-Nov-2022\0\\#P wB
 97XD/6-311++G(d,p) scf=maxcycle=512\\_conf010.gjf nmol_natom 1_15\\0,1
 \C\C,1,1.39016191\C,1,1.39194539,2,119.895942\C,2,1.38669027,1,119.880
 75721,3,0.70825972,0\H,2,0.98744251,1,119.71654057,3,-179.90726164,0\C
 ,1,1.48428757,2,119.93615286,4,-179.87772406,0\C,3,1.40101108,1,119.72
 36454,2,-0.26266839,0\H,3,0.9902154,1,119.1886159,2,178.85397616,0\C,4
 ,1.37899003,2,120.45785903,1,-0.48041454,0\H,4,0.9834739,2,120.3044270
 6,1,179.36166981,0\O,6,1.27459751,1,118.00615353,2,-1.25976832,0\O,6,1
 .26362572,1,118.77715367,2,179.20603801,0\H,7,0.98977053,3,119.3786157
 8,1,-178.93545741,0\H,9,0.99498061,4,119.46722635,2,-178.58826714,0\H,
 11,0.89680392,6,118.15823763,1,-220.,0\\Version=ES64L-G16RevB.01\State
 =1-A\HF=-420.7396857\RMSD=8.327e-09\Dipole=0.1242298,0.3449195,1.12779
 63\Quadrupole=7.3706807,-3.0344636,-4.3362171,-2.4749467,-2.0070566,-0
 .2448589\PG=C01 [X(C7H6O2)]\\@


 At the touch of love, everyone becomes a poet.
                                -- Plato
 Job cpu time:       0 days  0 hours  7 minutes 21.6 seconds.
 Elapsed time:       0 days  0 hours  0 minutes 13.9 seconds.
 File lengths (MBytes):  RWF=     35 Int=      0 D2E=      0 Chk=      4 Scr=      1
 Normal termination of Gaussian 16 at Sun Nov 20 17:26:21 2022.
