 Entering Gaussian System, Link 0=g16
 Input=_conf015.gjf
 Output=_conf015.log
 Initial command:
 /opt/ap/G16/B01/g16/l1.exe "/tmp2/scr/Gau-10951.inp" -scrdir="/tmp2/scr/"
 Entering Link 1 = /opt/ap/G16/B01/g16/l1.exe PID=     10952.
  
 Copyright (c) 1988-2017, Gaussian, Inc.  All Rights Reserved.
  
 This is part of the Gaussian(R) 16 program.  It is based on
 the Gaussian(R) 09 system (copyright 2009, Gaussian, Inc.),
 the Gaussian(R) 03 system (copyright 2003, Gaussian, Inc.),
 the Gaussian(R) 98 system (copyright 1998, Gaussian, Inc.),
 the Gaussian(R) 94 system (copyright 1995, Gaussian, Inc.),
 the Gaussian 92(TM) system (copyright 1992, Gaussian, Inc.),
 the Gaussian 90(TM) system (copyright 1990, Gaussian, Inc.),
 the Gaussian 88(TM) system (copyright 1988, Gaussian, Inc.),
 the Gaussian 86(TM) system (copyright 1986, Carnegie Mellon
 University), and the Gaussian 82(TM) system (copyright 1983,
 Carnegie Mellon University). Gaussian is a federally registered
 trademark of Gaussian, Inc.
  
 This software contains proprietary and confidential information,
 including trade secrets, belonging to Gaussian, Inc.
  
 This software is provided under written license and may be
 used, copied, transmitted, or stored only in accord with that
 written license.
  
 The following legend is applicable only to US Government
 contracts under FAR:
  
                    RESTRICTED RIGHTS LEGEND
  
 Use, reproduction and disclosure by the US Government is
 subject to restrictions as set forth in subparagraphs (a)
 and (c) of the Commercial Computer Software - Restricted
 Rights clause in FAR 52.227-19.
  
 Gaussian, Inc.
 340 Quinnipiac St., Bldg. 40, Wallingford CT 06492
  
  
 ---------------------------------------------------------------
 Warning -- This program may not be used in any manner that
 competes with the business of Gaussian, Inc. or will provide
 assistance to any competitor of Gaussian, Inc.  The licensee
 of this program is prohibited from giving any competitor of
 Gaussian, Inc. access to this program.  By using this program,
 the user acknowledges that Gaussian, Inc. is engaged in the
 business of creating and licensing software in the field of
 computational chemistry and represents and warrants to the
 licensee that it is not a competitor of Gaussian, Inc. and that
 it will not use this program in any manner prohibited above.
 ---------------------------------------------------------------
  

 Cite this work as:
 Gaussian 16, Revision B.01,
 M. J. Frisch, G. W. Trucks, H. B. Schlegel, G. E. Scuseria, 
 M. A. Robb, J. R. Cheeseman, G. Scalmani, V. Barone, 
 G. A. Petersson, H. Nakatsuji, X. Li, M. Caricato, A. V. Marenich, 
 J. Bloino, B. G. Janesko, R. Gomperts, B. Mennucci, H. P. Hratchian, 
 J. V. Ortiz, A. F. Izmaylov, J. L. Sonnenberg, D. Williams-Young, 
 F. Ding, F. Lipparini, F. Egidi, J. Goings, B. Peng, A. Petrone, 
 T. Henderson, D. Ranasinghe, V. G. Zakrzewski, J. Gao, N. Rega, 
 G. Zheng, W. Liang, M. Hada, M. Ehara, K. Toyota, R. Fukuda, 
 J. Hasegawa, M. Ishida, T. Nakajima, Y. Honda, O. Kitao, H. Nakai, 
 T. Vreven, K. Throssell, J. A. Montgomery, Jr., J. E. Peralta, 
 F. Ogliaro, M. J. Bearpark, J. J. Heyd, E. N. Brothers, K. N. Kudin, 
 V. N. Staroverov, T. A. Keith, R. Kobayashi, J. Normand, 
 K. Raghavachari, A. P. Rendell, J. C. Burant, S. S. Iyengar, 
 J. Tomasi, M. Cossi, J. M. Millam, M. Klene, C. Adamo, R. Cammi, 
 J. W. Ochterski, R. L. Martin, K. Morokuma, O. Farkas, 
 J. B. Foresman, and D. J. Fox, Gaussian, Inc., Wallingford CT, 2016.
 
 ******************************************
 Gaussian 16:  ES64L-G16RevB.01 20-Dec-2017
                20-Nov-2022 
 ******************************************
 %nprocshared=32
 Will use up to   32 processors via shared memory.
 %mem=120GB
 %chk=_conf015.chk
 ----------------------------------------
 #P wB97XD/6-311++G(d,p) scf=maxcycle=512
 ----------------------------------------
 1/38=1,172=1/1;
 2/12=2,17=6,18=5,40=1/2;
 3/5=4,6=6,7=1111,11=2,25=1,30=1,74=-58/1,2,3;
 4//1;
 5/5=2,7=512,38=5/2;
 6/7=2,8=2,9=2,10=2,28=1/1;
 99/5=1,9=1/99;
 Leave Link    1 at Sun Nov 20 17:26:21 2022, MaxMem= 16106127360 cpu:               2.2 elap:               0.1
 (Enter /opt/ap/G16/B01/g16/l101.exe)
 ----------------------------
 _conf015.gjf nmol_natom 1_15
 ----------------------------
 Symbolic Z-matrix:
 Charge =  0 Multiplicity = 1
 C
 C                    1     1.39016 
 C                    1     1.39195  2     119.89594 
 C                    2     1.38669  1     119.88076  3     0.70826  0
 H                    2     0.98744  1     119.71654  3    -179.90726  0
 C                    1     1.48429  2     119.93615  4    -179.87772  0
 C                    3     1.40101  1     119.72365  2    -0.26267  0
 H                    3     0.99022  1     119.18862  2     178.85398  0
 C                    4     1.37899  2     120.45786  1    -0.48041  0
 H                    4     0.98347  2     120.30443  1     179.36167  0
 O                    6     1.2746   1     118.00615  2    -1.25977  0
 O                    6     1.26363  1     118.77715  2     179.20604  0
 H                    7     0.98977  3     119.37862  1    -178.93546  0
 H                    9     0.99498  4     119.46723  2    -178.58827  0
 H                    11    0.8968   6     118.15824  1    -195.     0
 
 ITRead=  0  0  0  0  0  0  0  0  0  0  0  0  0  0  0
 MicOpt= -1 -1 -1 -1 -1 -1 -1 -1 -1 -1 -1 -1 -1 -1 -1
 NAtoms=     15 NQM=       15 NQMF=       0 NMMI=      0 NMMIF=      0
                NMic=       0 NMicF=      0.
                    Isotopes and Nuclear Properties:
 (Nuclear quadrupole moments (NQMom) in fm**2, nuclear magnetic moments (NMagM)
  in nuclear magnetons)

  Atom         1           2           3           4           5           6           7           8           9          10
 IAtWgt=          12          12          12          12           1          12          12           1          12           1
 AtmWgt=  12.0000000  12.0000000  12.0000000  12.0000000   1.0078250  12.0000000  12.0000000   1.0078250  12.0000000   1.0078250
 NucSpn=           0           0           0           0           1           0           0           1           0           1
 AtZEff=  -0.0000000  -0.0000000  -0.0000000  -0.0000000  -0.0000000  -0.0000000  -0.0000000  -0.0000000  -0.0000000  -0.0000000
 NQMom=    0.0000000   0.0000000   0.0000000   0.0000000   0.0000000   0.0000000   0.0000000   0.0000000   0.0000000   0.0000000
 NMagM=    0.0000000   0.0000000   0.0000000   0.0000000   2.7928460   0.0000000   0.0000000   2.7928460   0.0000000   2.7928460
 AtZNuc=   6.0000000   6.0000000   6.0000000   6.0000000   1.0000000   6.0000000   6.0000000   1.0000000   6.0000000   1.0000000

  Atom        11          12          13          14          15
 IAtWgt=          16          16           1           1           1
 AtmWgt=  15.9949146  15.9949146   1.0078250   1.0078250   1.0078250
 NucSpn=           0           0           1           1           1
 AtZEff=  -0.0000000  -0.0000000  -0.0000000  -0.0000000  -0.0000000
 NQMom=    0.0000000   0.0000000   0.0000000   0.0000000   0.0000000
 NMagM=    0.0000000   0.0000000   2.7928460   2.7928460   2.7928460
 AtZNuc=   8.0000000   8.0000000   1.0000000   1.0000000   1.0000000
 Leave Link  101 at Sun Nov 20 17:26:21 2022, MaxMem= 16106127360 cpu:               5.1 elap:               0.2
 (Enter /opt/ap/G16/B01/g16/l202.exe)
                          Input orientation:                          
 ---------------------------------------------------------------------
 Center     Atomic      Atomic             Coordinates (Angstroms)
 Number     Number       Type             X           Y           Z
 ---------------------------------------------------------------------
      1          6           0        0.000000    0.000000    0.000000
      2          6           0        0.000000    0.000000    1.390162
      3          6           0        1.206722    0.000000   -0.693782
      4          6           0        1.202258    0.014862    2.081006
      5          1           0       -0.857581   -0.001388    1.879646
      6          6           0       -1.286190   -0.013155   -0.740711
      7          6           0        2.415349    0.005578    0.014752
      8          1           0        1.194584   -0.017290   -1.683772
      9          6           0        2.400563    0.019708    1.398617
     10          1           0        1.209438    0.024411    3.064408
     11          8           0       -2.365984   -0.048941   -0.064425
     12          8           0       -1.260842    0.002453   -2.003986
     13          1           0        3.270315    0.021574   -0.483669
     14          1           0        3.254554    0.009066    1.909081
     15          1           0       -3.134316    0.147471   -0.483168
 ---------------------------------------------------------------------
                    Distance matrix (angstroms):
                    1          2          3          4          5
     1  C    0.000000
     2  C    1.390162   0.000000
     3  C    1.391945   2.408112   0.000000
     4  C    2.403379   1.386690   2.774832   0.000000
     5  H    2.066039   0.987443   3.299073   2.069721   0.000000
     6  C    1.484288   2.488991   2.493388   3.762345   2.655206
     7  C    2.415401   2.779513   1.401011   2.396056   3.766955
     8  H    2.064563   3.297939   0.990215   3.764924   4.112127
     9  C    2.778349   2.400659   2.409104   1.378990   3.293530
    10  H    3.294530   2.065535   3.758270   0.983474   2.382624
    11  O    2.367367   2.777786   3.628045   4.164047   2.461088
    12  O    2.367633   3.620769   2.793834   4.770133   3.904515
    13  H    3.305958   3.769173   2.074374   3.294611   4.756607
    14  H    3.773167   3.295676   3.311886   2.059493   4.112253
    15  H    3.174765   3.654456   4.348645   5.039687   3.284596
                    6          7          8          9         10
     6  C    0.000000
     7  C    3.777892   0.000000
     8  H    2.653982   2.091836   0.000000
     9  C    4.262622   1.384016   3.310118   0.000000
    10  H    4.550659   3.279477   4.748386   2.047842   0.000000
    11  O    1.274598   4.782299   3.911641   4.986499   4.751696
    12  O    1.263626   4.194007   2.476296   4.998389   5.638384
    13  H    4.563881   0.989771   2.398003   2.073517   4.103177
    14  H    5.257398   2.071897   4.141589   0.994981   2.348938
    15  H    1.872885   5.573763   4.495328   5.847420   5.609691
                   11         12         13         14         15
    11  O    0.000000
    12  O    2.232908   0.000000
    13  H    5.652309   4.779447   0.000000
    14  H    5.957225   5.975025   2.392834   0.000000
    15  H    0.896804   2.417400   6.405868   6.823464   0.000000
 Stoichiometry    C7H6O2
 Framework group  C1[X(C7H6O2)]
 Deg. of freedom    39
 Full point group                 C1      NOp   1
 Largest Abelian subgroup         C1      NOp   1
 Largest concise Abelian subgroup C1      NOp   1
                         Standard orientation:                         
 ---------------------------------------------------------------------
 Center     Atomic      Atomic             Coordinates (Angstroms)
 Number     Number       Type             X           Y           Z
 ---------------------------------------------------------------------
      1          6           0       -0.220966    0.028480    0.001547
      2          6           0        0.442964   -1.192891    0.000557
      3          6           0        0.507873    1.214340   -0.004949
      4          6           0        1.829247   -1.225639    0.007963
      5          1           0       -0.076711   -2.032516    0.003787
      6          6           0       -1.704797    0.064959   -0.003630
      7          6           0        1.908151    1.169071   -0.006877
      8          1           0        0.024304    2.078293   -0.021464
      9          6           0        2.556159   -0.053798    0.006354
     10          1           0        2.305272   -2.086187    0.016770
     11          8           0       -2.330672   -1.044987   -0.033643
     12          8           0       -2.285772    1.186988    0.012729
     13          1           0        2.421339    2.015330    0.004522
     14          1           0        3.550181   -0.094450   -0.009599
     15          1           0       -3.204623   -1.043612    0.167514
 ---------------------------------------------------------------------
 Rotational constants (GHZ):           3.9668035           1.2391901           0.9444031
 Leave Link  202 at Sun Nov 20 17:26:21 2022, MaxMem= 16106127360 cpu:               0.2 elap:               0.0
 (Enter /opt/ap/G16/B01/g16/l301.exe)
 Standard basis: 6-311++G(d,p) (5D, 7F)
 Ernie: Thresh=  0.10000D-02 Tol=  0.10000D-05 Strict=F.
 There are   249 symmetry adapted cartesian basis functions of A   symmetry.
 There are   240 symmetry adapted basis functions of A   symmetry.
   240 basis functions,   378 primitive gaussians,   249 cartesian basis functions
    32 alpha electrons       32 beta electrons
       nuclear repulsion energy       409.5683121563 Hartrees.
 IExCor= 4639 DFT=T Ex+Corr=wB97XD ExCW=0 ScaHFX=  1.000000
 ScaDFX=  1.000000  1.000000  1.000000  1.000000 ScalE2=  1.000000  1.000000
 IRadAn=      5 IRanWt=     -1 IRanGd=            0 ICorTp=0 IEmpDi=121
 HFx  wShort=  0.000000 wLong=  0.200000 cFull=  0.222036 cShort=  0.000000 cLong=  0.777964
 DFx  wShort=  0.000000 wLong=  0.200000 cFull=  0.000000 cShort=  0.000000 cLong=  1.000000
 NAtoms=   15 NActive=   15 NUniq=   15 SFac= 1.00D+00 NAtFMM=   60 NAOKFM=F Big=F
 Integral buffers will be    131072 words long.
 Raffenetti 2 integral format.
 Two-electron integral symmetry is turned on.
 R6Disp:  Grimme-D2 Dispersion energy=       -0.0063341074 Hartrees.
 Nuclear repulsion after empirical dispersion term =      409.5619780489 Hartrees.
 Leave Link  301 at Sun Nov 20 17:26:21 2022, MaxMem= 16106127360 cpu:               1.9 elap:               0.1
 (Enter /opt/ap/G16/B01/g16/l302.exe)
 NPDir=0 NMtPBC=     1 NCelOv=     1 NCel=       1 NClECP=     1 NCelD=      1
         NCelK=      1 NCelE2=     1 NClLst=     1 CellRange=     0.0.
 One-electron integrals computed using PRISM.
 One-electron integral symmetry used in STVInt
 NBasis=   240 RedAO= T EigKep=  1.22D-06  NBF=   240
 NBsUse=   240 1.00D-06 EigRej= -1.00D+00 NBFU=   240
 Precomputing XC quadrature grid using
 IXCGrd= 4 IRadAn=           5 IRanWt=          -1 IRanGd=           0 AccXCQ= 0.00D+00.
 Generated NRdTot=       0 NPtTot=           0 NUsed=           0 NTot=          32
 NSgBfM=   249   249   249   249   249 MxSgAt=    15 MxSgA2=    15.
 Leave Link  302 at Sun Nov 20 17:26:22 2022, MaxMem= 16106127360 cpu:               5.3 elap:               0.2
 (Enter /opt/ap/G16/B01/g16/l303.exe)
 DipDrv:  MaxL=1.
 Leave Link  303 at Sun Nov 20 17:26:22 2022, MaxMem= 16106127360 cpu:               1.1 elap:               0.0
 (Enter /opt/ap/G16/B01/g16/l401.exe)
 ExpMin= 3.60D-02 ExpMax= 8.59D+03 ExpMxC= 1.30D+03 IAcc=3 IRadAn=         5 AccDes= 0.00D+00
 Harris functional with IExCor= 4639 and IRadAn=       5 diagonalized for initial guess.
 HarFok:  IExCor= 4639 AccDes= 0.00D+00 IRadAn=         5 IDoV= 1 UseB2=F ITyADJ=14
 ICtDFT=  3500011 ScaDFX=  1.000000  1.000000  1.000000  1.000000
 FoFCou: FMM=F IPFlag=           0 FMFlag=      100000 FMFlg1=           0
         NFxFlg=           0 DoJE=T BraDBF=F KetDBF=T FulRan=T
         wScrn=  0.000000 ICntrl=       500 IOpCl=  0 I1Cent=   200000004 NGrid=           0
         NMat0=    1 NMatS0=      1 NMatT0=    0 NMatD0=    1 NMtDS0=    0 NMtDT0=    0
 Petite list used in FoFCou.
 Harris En= -403.253855649502    
 JPrj=0 DoOrth=F DoCkMO=F.
 Leave Link  401 at Sun Nov 20 17:26:22 2022, MaxMem= 16106127360 cpu:              11.8 elap:               0.4
 (Enter /opt/ap/G16/B01/g16/l502.exe)
 Integral symmetry usage will be decided dynamically.
 Closed shell SCF:
 Using DIIS extrapolation, IDIIS=  1040.
 NGot= 16106127360 LenX= 16105992971 LenY= 16105930529
 Requested convergence on RMS density matrix=1.00D-08 within 512 cycles.
 Requested convergence on MAX density matrix=1.00D-06.
 Requested convergence on             energy=1.00D-06.
 No special actions if energy rises.
 Fock matrices will be formed incrementally for  20 cycles.

 Cycle   1  Pass 1  IDiag  1:
 FoFJK:  IHMeth= 1 ICntrl=       0 DoSepK=T KAlg= 0 I1Cent=           0 FoldK=F
 IRaf=         1 NMat=       1 IRICut=       1 DoRegI=T DoRafI=F ISym2E= 0 IDoP0=0 IntGTp=1.
 FoFCou: FMM=F IPFlag=           0 FMFlag=      100000 FMFlg1=           0
         NFxFlg=           0 DoJE=T BraDBF=F KetDBF=F FulRan=T
         wScrn=  0.000000 ICntrl=       500 IOpCl=  0 I1Cent=           0 NGrid=           0
         NMat0=    1 NMatS0=      1 NMatT0=    0 NMatD0=    1 NMtDS0=    0 NMtDT0=    0
 Symmetry not used in FoFCou.
 E= -420.631837097681    
 DIIS: error= 8.17D-02 at cycle   1 NSaved=   1.
 NSaved= 1 IEnMin= 1 EnMin= -420.631837097681     IErMin= 1 ErrMin= 8.17D-02
 ErrMax= 8.17D-02  0.00D+00 EMaxC= 1.00D-01 BMatC= 8.60D-01 BMatP= 8.60D-01
 IDIUse=3 WtCom= 1.83D-01 WtEn= 8.17D-01
 Coeff-Com:  0.100D+01
 Coeff-En:   0.100D+01
 Coeff:      0.100D+01
 Gap=     0.426 Goal=   None    Shift=    0.000
 GapD=    0.426 DampG=2.000 DampE=0.500 DampFc=1.0000 IDamp=-1.
 RMSDP=3.17D-02 MaxDP=2.77D+00              OVMax= 1.09D-01

 Cycle   2  Pass 1  IDiag  1:
 RMSU=  1.46D-02    CP:  6.77D-01
 E= -420.702840662726     Delta-E=       -0.071003565045 Rises=F Damp=F
 DIIS: error= 1.45D-02 at cycle   2 NSaved=   2.
 NSaved= 2 IEnMin= 2 EnMin= -420.702840662726     IErMin= 2 ErrMin= 1.45D-02
 ErrMax= 1.45D-02  0.00D+00 EMaxC= 1.00D-01 BMatC= 5.66D-02 BMatP= 8.60D-01
 IDIUse=3 WtCom= 8.55D-01 WtEn= 1.45D-01
 Coeff-Com:  0.135D+00 0.865D+00
 Coeff-En:   0.940D-01 0.906D+00
 Coeff:      0.129D+00 0.871D+00
 Gap=     0.423 Goal=   None    Shift=    0.000
 RMSDP=7.75D-03 MaxDP=3.35D-01 DE=-7.10D-02 OVMax= 7.63D-02

 Cycle   3  Pass 1  IDiag  1:
 RMSU=  6.97D-03    CP:  6.68D-01  7.75D-01
 E= -420.719133033460     Delta-E=       -0.016292370735 Rises=F Damp=F
 DIIS: error= 1.54D-02 at cycle   3 NSaved=   3.
 NSaved= 3 IEnMin= 3 EnMin= -420.719133033460     IErMin= 2 ErrMin= 1.45D-02
 ErrMax= 1.54D-02  0.00D+00 EMaxC= 1.00D-01 BMatC= 3.51D-02 BMatP= 5.66D-02
 IDIUse=3 WtCom= 8.46D-01 WtEn= 1.54D-01
 Coeff-Com:  0.273D-01 0.446D+00 0.527D+00
 Coeff-En:   0.000D+00 0.381D+00 0.619D+00
 Coeff:      0.231D-01 0.436D+00 0.541D+00
 Gap=     0.360 Goal=   None    Shift=    0.000
 RMSDP=4.05D-03 MaxDP=3.42D-01 DE=-1.63D-02 OVMax= 5.29D-02

 Cycle   4  Pass 1  IDiag  1:
 RMSU=  1.91D-03    CP:  6.43D-01  8.79D-01  6.58D-01
 E= -420.744764377092     Delta-E=       -0.025631343632 Rises=F Damp=F
 DIIS: error= 2.84D-03 at cycle   4 NSaved=   4.
 NSaved= 4 IEnMin= 4 EnMin= -420.744764377092     IErMin= 4 ErrMin= 2.84D-03
 ErrMax= 2.84D-03  0.00D+00 EMaxC= 1.00D-01 BMatC= 1.90D-03 BMatP= 3.51D-02
 IDIUse=3 WtCom= 9.72D-01 WtEn= 2.84D-02
 Coeff-Com:  0.105D-01 0.222D+00 0.305D+00 0.462D+00
 Coeff-En:   0.000D+00 0.000D+00 0.000D+00 0.100D+01
 Coeff:      0.102D-01 0.215D+00 0.297D+00 0.478D+00
 Gap=     0.350 Goal=   None    Shift=    0.000
 RMSDP=9.86D-04 MaxDP=4.43D-02 DE=-2.56D-02 OVMax= 1.23D-02

 Cycle   5  Pass 1  IDiag  1:
 RMSU=  7.17D-04    CP:  6.40D-01  8.61D-01  7.20D-01  8.10D-01
 E= -420.746049023629     Delta-E=       -0.001284646537 Rises=F Damp=F
 DIIS: error= 5.51D-04 at cycle   5 NSaved=   5.
 NSaved= 5 IEnMin= 5 EnMin= -420.746049023629     IErMin= 5 ErrMin= 5.51D-04
 ErrMax= 5.51D-04  0.00D+00 EMaxC= 1.00D-01 BMatC= 5.20D-05 BMatP= 1.90D-03
 IDIUse=3 WtCom= 9.94D-01 WtEn= 5.51D-03
 Coeff-Com:  0.303D-03 0.151D-01 0.302D-01 0.154D+00 0.801D+00
 Coeff-En:   0.000D+00 0.000D+00 0.000D+00 0.000D+00 0.100D+01
 Coeff:      0.301D-03 0.150D-01 0.300D-01 0.153D+00 0.802D+00
 Gap=     0.349 Goal=   None    Shift=    0.000
 RMSDP=2.36D-04 MaxDP=1.33D-02 DE=-1.28D-03 OVMax= 2.52D-03

 Cycle   6  Pass 1  IDiag  1:
 RMSU=  1.23D-04    CP:  6.38D-01  8.65D-01  7.34D-01  8.36D-01  1.01D+00
 E= -420.746089344751     Delta-E=       -0.000040321122 Rises=F Damp=F
 DIIS: error= 2.10D-04 at cycle   6 NSaved=   6.
 NSaved= 6 IEnMin= 6 EnMin= -420.746089344751     IErMin= 6 ErrMin= 2.10D-04
 ErrMax= 2.10D-04  0.00D+00 EMaxC= 1.00D-01 BMatC= 7.36D-06 BMatP= 5.20D-05
 IDIUse=3 WtCom= 9.98D-01 WtEn= 2.10D-03
 Coeff-Com: -0.967D-03-0.167D-01-0.181D-01 0.148D-01 0.348D+00 0.673D+00
 Coeff-En:   0.000D+00 0.000D+00 0.000D+00 0.000D+00 0.000D+00 0.100D+01
 Coeff:     -0.965D-03-0.166D-01-0.180D-01 0.148D-01 0.347D+00 0.674D+00
 Gap=     0.349 Goal=   None    Shift=    0.000
 RMSDP=1.84D-04 MaxDP=1.71D-02 DE=-4.03D-05 OVMax= 8.01D-04

 Cycle   7  Pass 1  IDiag  1:
 RMSU=  5.13D-05    CP:  6.36D-01  8.62D-01  7.44D-01  8.47D-01  1.08D+00
                    CP:  1.12D+00
 E= -420.746096469574     Delta-E=       -0.000007124824 Rises=F Damp=F
 DIIS: error= 6.81D-05 at cycle   7 NSaved=   7.
 NSaved= 7 IEnMin= 7 EnMin= -420.746096469574     IErMin= 7 ErrMin= 6.81D-05
 ErrMax= 6.81D-05  0.00D+00 EMaxC= 1.00D-01 BMatC= 3.10D-07 BMatP= 7.36D-06
 IDIUse=1 WtCom= 1.00D+00 WtEn= 0.00D+00
 Coeff-Com: -0.237D-03-0.550D-02-0.690D-02-0.135D-01 0.551D-03 0.136D+00
 Coeff-Com:  0.890D+00
 Coeff:     -0.237D-03-0.550D-02-0.690D-02-0.135D-01 0.551D-03 0.136D+00
 Coeff:      0.890D+00
 Gap=     0.349 Goal=   None    Shift=    0.000
 RMSDP=4.85D-05 MaxDP=3.27D-03 DE=-7.12D-06 OVMax= 3.16D-04

 Cycle   8  Pass 1  IDiag  1:
 RMSU=  1.50D-05    CP:  6.36D-01  8.62D-01  7.48D-01  8.48D-01  1.12D+00
                    CP:  1.15D+00  1.08D+00
 E= -420.746097038425     Delta-E=       -0.000000568851 Rises=F Damp=F
 DIIS: error= 1.53D-05 at cycle   8 NSaved=   8.
 NSaved= 8 IEnMin= 8 EnMin= -420.746097038425     IErMin= 8 ErrMin= 1.53D-05
 ErrMax= 1.53D-05  0.00D+00 EMaxC= 1.00D-01 BMatC= 4.09D-08 BMatP= 3.10D-07
 IDIUse=1 WtCom= 1.00D+00 WtEn= 0.00D+00
 Coeff-Com:  0.307D-04 0.261D-03 0.138D-03-0.587D-02-0.375D-01-0.373D-01
 Coeff-Com:  0.240D+00 0.840D+00
 Coeff:      0.307D-04 0.261D-03 0.138D-03-0.587D-02-0.375D-01-0.373D-01
 Coeff:      0.240D+00 0.840D+00
 Gap=     0.349 Goal=   None    Shift=    0.000
 RMSDP=1.47D-05 MaxDP=7.57D-04 DE=-5.69D-07 OVMax= 1.19D-04

 Cycle   9  Pass 1  IDiag  1:
 RMSU=  4.84D-06    CP:  6.36D-01  8.62D-01  7.48D-01  8.45D-01  1.13D+00
                    CP:  1.18D+00  1.16D+00  1.19D+00
 E= -420.746097110082     Delta-E=       -0.000000071657 Rises=F Damp=F
 DIIS: error= 1.04D-05 at cycle   9 NSaved=   9.
 NSaved= 9 IEnMin= 9 EnMin= -420.746097110082     IErMin= 9 ErrMin= 1.04D-05
 ErrMax= 1.04D-05  0.00D+00 EMaxC= 1.00D-01 BMatC= 4.68D-09 BMatP= 4.09D-08
 IDIUse=1 WtCom= 1.00D+00 WtEn= 0.00D+00
 Coeff-Com:  0.369D-04 0.705D-03 0.857D-03-0.342D-03-0.102D-01-0.267D-01
 Coeff-Com: -0.270D-01 0.250D+00 0.813D+00
 Coeff:      0.369D-04 0.705D-03 0.857D-03-0.342D-03-0.102D-01-0.267D-01
 Coeff:     -0.270D-01 0.250D+00 0.813D+00
 Gap=     0.349 Goal=   None    Shift=    0.000
 RMSDP=5.12D-06 MaxDP=3.17D-04 DE=-7.17D-08 OVMax= 4.97D-05

 Cycle  10  Pass 1  IDiag  1:
 RMSU=  1.61D-06    CP:  6.36D-01  8.62D-01  7.48D-01  8.43D-01  1.14D+00
                    CP:  1.18D+00  1.18D+00  1.29D+00  1.31D+00
 E= -420.746097118300     Delta-E=       -0.000000008217 Rises=F Damp=F
 DIIS: error= 1.49D-06 at cycle  10 NSaved=  10.
 NSaved=10 IEnMin=10 EnMin= -420.746097118300     IErMin=10 ErrMin= 1.49D-06
 ErrMax= 1.49D-06  0.00D+00 EMaxC= 1.00D-01 BMatC= 5.83D-10 BMatP= 4.68D-09
 IDIUse=1 WtCom= 1.00D+00 WtEn= 0.00D+00
 Coeff-Com:  0.655D-05 0.145D-03 0.202D-03 0.415D-03 0.128D-02-0.393D-02
 Coeff-Com: -0.302D-01-0.251D-01 0.228D+00 0.829D+00
 Coeff:      0.655D-05 0.145D-03 0.202D-03 0.415D-03 0.128D-02-0.393D-02
 Coeff:     -0.302D-01-0.251D-01 0.228D+00 0.829D+00
 Gap=     0.349 Goal=   None    Shift=    0.000
 RMSDP=1.69D-06 MaxDP=9.68D-05 DE=-8.22D-09 OVMax= 1.31D-05

 Cycle  11  Pass 1  IDiag  1:
 RMSU=  3.72D-07    CP:  6.36D-01  8.62D-01  7.48D-01  8.42D-01  1.14D+00
                    CP:  1.18D+00  1.18D+00  1.34D+00  1.44D+00  1.18D+00
 E= -420.746097119221     Delta-E=       -0.000000000922 Rises=F Damp=F
 DIIS: error= 1.00D-06 at cycle  11 NSaved=  11.
 NSaved=11 IEnMin=11 EnMin= -420.746097119221     IErMin=11 ErrMin= 1.00D-06
 ErrMax= 1.00D-06  0.00D+00 EMaxC= 1.00D-01 BMatC= 1.03D-10 BMatP= 5.83D-10
 IDIUse=1 WtCom= 1.00D+00 WtEn= 0.00D+00
 Coeff-Com: -0.150D-05-0.115D-04 0.110D-05 0.243D-03 0.190D-02 0.134D-02
 Coeff-Com: -0.842D-02-0.458D-01-0.132D-01 0.333D+00 0.731D+00
 Coeff:     -0.150D-05-0.115D-04 0.110D-05 0.243D-03 0.190D-02 0.134D-02
 Coeff:     -0.842D-02-0.458D-01-0.132D-01 0.333D+00 0.731D+00
 Gap=     0.349 Goal=   None    Shift=    0.000
 RMSDP=6.56D-07 MaxDP=3.77D-05 DE=-9.22D-10 OVMax= 6.88D-06

 Cycle  12  Pass 1  IDiag  1:
 RMSU=  2.26D-07    CP:  6.36D-01  8.62D-01  7.48D-01  8.42D-01  1.14D+00
                    CP:  1.18D+00  1.19D+00  1.34D+00  1.50D+00  1.29D+00
                    CP:  1.02D+00
 E= -420.746097119364     Delta-E=       -0.000000000143 Rises=F Damp=F
 DIIS: error= 2.16D-07 at cycle  12 NSaved=  12.
 NSaved=12 IEnMin=12 EnMin= -420.746097119364     IErMin=12 ErrMin= 2.16D-07
 ErrMax= 2.16D-07  0.00D+00 EMaxC= 1.00D-01 BMatC= 7.83D-12 BMatP= 1.03D-10
 IDIUse=1 WtCom= 1.00D+00 WtEn= 0.00D+00
 Coeff-Com: -0.977D-06-0.155D-04-0.159D-04 0.387D-04 0.458D-03 0.595D-03
 Coeff-Com:  0.615D-03-0.116D-01-0.224D-01 0.242D-01 0.203D+00 0.805D+00
 Coeff:     -0.977D-06-0.155D-04-0.159D-04 0.387D-04 0.458D-03 0.595D-03
 Coeff:      0.615D-03-0.116D-01-0.224D-01 0.242D-01 0.203D+00 0.805D+00
 Gap=     0.349 Goal=   None    Shift=    0.000
 RMSDP=1.46D-07 MaxDP=1.03D-05 DE=-1.43D-10 OVMax= 2.00D-06

 Cycle  13  Pass 1  IDiag  1:
 RMSU=  6.44D-08    CP:  6.36D-01  8.62D-01  7.48D-01  8.42D-01  1.14D+00
                    CP:  1.18D+00  1.19D+00  1.34D+00  1.51D+00  1.31D+00
                    CP:  1.09D+00  1.00D+00
 E= -420.746097119381     Delta-E=       -0.000000000017 Rises=F Damp=F
 DIIS: error= 1.26D-07 at cycle  13 NSaved=  13.
 NSaved=13 IEnMin=13 EnMin= -420.746097119381     IErMin=13 ErrMin= 1.26D-07
 ErrMax= 1.26D-07  0.00D+00 EMaxC= 1.00D-01 BMatC= 1.31D-12 BMatP= 7.83D-12
 IDIUse=1 WtCom= 1.00D+00 WtEn= 0.00D+00
 Coeff-Com:  0.741D-10-0.396D-05-0.694D-05-0.343D-04-0.211D-03-0.988D-04
 Coeff-Com:  0.185D-02 0.456D-02-0.335D-02-0.536D-01-0.864D-01 0.228D+00
 Coeff-Com:  0.909D+00
 Coeff:      0.741D-10-0.396D-05-0.694D-05-0.343D-04-0.211D-03-0.988D-04
 Coeff:      0.185D-02 0.456D-02-0.335D-02-0.536D-01-0.864D-01 0.228D+00
 Coeff:      0.909D+00
 Gap=     0.349 Goal=   None    Shift=    0.000
 RMSDP=8.16D-08 MaxDP=7.66D-06 DE=-1.68D-11 OVMax= 1.28D-06

 Cycle  14  Pass 1  IDiag  1:
 RMSU=  2.31D-08    CP:  6.36D-01  8.62D-01  7.48D-01  8.42D-01  1.14D+00
                    CP:  1.18D+00  1.19D+00  1.34D+00  1.51D+00  1.32D+00
                    CP:  1.12D+00  1.11D+00  1.27D+00
 E= -420.746097119386     Delta-E=       -0.000000000005 Rises=F Damp=F
 DIIS: error= 5.55D-08 at cycle  14 NSaved=  14.
 NSaved=14 IEnMin=14 EnMin= -420.746097119386     IErMin=14 ErrMin= 5.55D-08
 ErrMax= 5.55D-08  0.00D+00 EMaxC= 1.00D-01 BMatC= 1.12D-13 BMatP= 1.31D-12
 IDIUse=1 WtCom= 1.00D+00 WtEn= 0.00D+00
 Coeff-Com:  0.572D-07 0.952D-06 0.999D-06-0.441D-05-0.592D-04-0.418D-04
 Coeff-Com:  0.385D-04 0.122D-02 0.196D-02-0.586D-02-0.236D-01-0.637D-01
 Coeff-Com:  0.438D-01 0.105D+01
 Coeff:      0.572D-07 0.952D-06 0.999D-06-0.441D-05-0.592D-04-0.418D-04
 Coeff:      0.385D-04 0.122D-02 0.196D-02-0.586D-02-0.236D-01-0.637D-01
 Coeff:      0.438D-01 0.105D+01
 Gap=     0.349 Goal=   None    Shift=    0.000
 RMSDP=2.99D-08 MaxDP=2.55D-06 DE=-4.66D-12 OVMax= 4.84D-07

 Cycle  15  Pass 1  IDiag  1:
 RMSU=  7.10D-09    CP:  6.36D-01  8.62D-01  7.48D-01  8.42D-01  1.14D+00
                    CP:  1.18D+00  1.19D+00  1.34D+00  1.51D+00  1.31D+00
                    CP:  1.13D+00  1.10D+00  1.45D+00  1.27D+00
 E= -420.746097119383     Delta-E=        0.000000000003 Rises=F Damp=F
 DIIS: error= 3.20D-08 at cycle  15 NSaved=  15.
 NSaved=15 IEnMin=14 EnMin= -420.746097119386     IErMin=15 ErrMin= 3.20D-08
 ErrMax= 3.20D-08  0.00D+00 EMaxC= 1.00D-01 BMatC= 3.02D-14 BMatP= 1.12D-13
 IDIUse=1 WtCom= 1.00D+00 WtEn= 0.00D+00
 Coeff-Com:  0.157D-07 0.935D-06 0.150D-05 0.427D-05 0.130D-04 0.732D-05
 Coeff-Com: -0.283D-03-0.302D-03 0.133D-02 0.676D-02 0.605D-02-0.537D-01
 Coeff-Com: -0.131D+00 0.364D+00 0.807D+00
 Coeff:      0.157D-07 0.935D-06 0.150D-05 0.427D-05 0.130D-04 0.732D-05
 Coeff:     -0.283D-03-0.302D-03 0.133D-02 0.676D-02 0.605D-02-0.537D-01
 Coeff:     -0.131D+00 0.364D+00 0.807D+00
 Gap=     0.349 Goal=   None    Shift=    0.000
 RMSDP=8.07D-09 MaxDP=5.30D-07 DE= 2.73D-12 OVMax= 1.86D-07

 SCF Done:  E(RwB97XD) =  -420.746097119     A.U. after   15 cycles
            NFock= 15  Conv=0.81D-08     -V/T= 2.0015
 KE= 4.201229375554D+02 PE=-1.802640812545D+03 EE= 5.522097998209D+02
 Leave Link  502 at Sun Nov 20 17:26:35 2022, MaxMem= 16106127360 cpu:             407.6 elap:              12.8
 (Enter /opt/ap/G16/B01/g16/l601.exe)
 Copying SCF densities to generalized density rwf, IOpCl= 0 IROHF=0.

 **********************************************************************

            Population analysis using the SCF Density.

 **********************************************************************

 Orbital symmetries:
       Occupied  (A) (A) (A) (A) (A) (A) (A) (A) (A) (A) (A) (A)
                 (A) (A) (A) (A) (A) (A) (A) (A) (A) (A) (A) (A)
                 (A) (A) (A) (A) (A) (A) (A) (A)
       Virtual   (A) (A) (A) (A) (A) (A) (A) (A) (A) (A) (A) (A)
                 (A) (A) (A) (A) (A) (A) (A) (A) (A) (A) (A) (A)
                 (A) (A) (A) (A) (A) (A) (A) (A) (A) (A) (A) (A)
                 (A) (A) (A) (A) (A) (A) (A) (A) (A) (A) (A) (A)
                 (A) (A) (A) (A) (A) (A) (A) (A) (A) (A) (A) (A)
                 (A) (A) (A) (A) (A) (A) (A) (A) (A) (A) (A) (A)
                 (A) (A) (A) (A) (A) (A) (A) (A) (A) (A) (A) (A)
                 (A) (A) (A) (A) (A) (A) (A) (A) (A) (A) (A) (A)
                 (A) (A) (A) (A) (A) (A) (A) (A) (A) (A) (A) (A)
                 (A) (A) (A) (A) (A) (A) (A) (A) (A) (A) (A) (A)
                 (A) (A) (A) (A) (A) (A) (A) (A) (A) (A) (A) (A)
                 (A) (A) (A) (A) (A) (A) (A) (A) (A) (A) (A) (A)
                 (A) (A) (A) (A) (A) (A) (A) (A) (A) (A) (A) (A)
                 (A) (A) (A) (A) (A) (A) (A) (A) (A) (A) (A) (A)
                 (A) (A) (A) (A) (A) (A) (A) (A) (A) (A) (A) (A)
                 (A) (A) (A) (A) (A) (A) (A) (A) (A) (A) (A) (A)
                 (A) (A) (A) (A) (A) (A) (A) (A) (A) (A) (A) (A)
                 (A) (A) (A) (A)
 The electronic state is 1-A.
 Alpha  occ. eigenvalues --  -19.31554 -19.22801 -10.43158 -10.31027 -10.29314
 Alpha  occ. eigenvalues --  -10.29303 -10.29184 -10.28988 -10.28732  -1.25737
 Alpha  occ. eigenvalues --   -1.10616  -0.98070  -0.88902  -0.87009  -0.80512
 Alpha  occ. eigenvalues --   -0.73375  -0.71918  -0.65841  -0.60715  -0.58609
 Alpha  occ. eigenvalues --   -0.56736  -0.56114  -0.54475  -0.53468  -0.48803
 Alpha  occ. eigenvalues --   -0.47400  -0.45518  -0.44696  -0.41083  -0.36122
 Alpha  occ. eigenvalues --   -0.34660  -0.34302
 Alpha virt. eigenvalues --    0.00629   0.03732   0.04307   0.04529   0.05290
 Alpha virt. eigenvalues --    0.06471   0.07820   0.08689   0.10201   0.11375
 Alpha virt. eigenvalues --    0.11900   0.12935   0.13439   0.14372   0.14601
 Alpha virt. eigenvalues --    0.16004   0.16321   0.16931   0.17520   0.17992
 Alpha virt. eigenvalues --    0.18048   0.19567   0.20060   0.20239   0.20461
 Alpha virt. eigenvalues --    0.21173   0.21619   0.21715   0.23334   0.23646
 Alpha virt. eigenvalues --    0.25441   0.26369   0.26814   0.27940   0.28891
 Alpha virt. eigenvalues --    0.29551   0.30079   0.30510   0.31040   0.31797
 Alpha virt. eigenvalues --    0.32004   0.33745   0.34346   0.35289   0.36024
 Alpha virt. eigenvalues --    0.36662   0.37052   0.38102   0.39845   0.40770
 Alpha virt. eigenvalues --    0.41835   0.42260   0.43470   0.44258   0.46393
 Alpha virt. eigenvalues --    0.46545   0.50432   0.53956   0.54730   0.57668
 Alpha virt. eigenvalues --    0.60053   0.60632   0.61933   0.63797   0.64217
 Alpha virt. eigenvalues --    0.64729   0.64972   0.65962   0.67554   0.68886
 Alpha virt. eigenvalues --    0.69412   0.72148   0.73401   0.74131   0.75427
 Alpha virt. eigenvalues --    0.76723   0.81329   0.82673   0.84105   0.86378
 Alpha virt. eigenvalues --    0.88533   0.90974   0.93079   0.93749   0.94646
 Alpha virt. eigenvalues --    0.96498   0.97176   0.97795   0.99963   1.00576
 Alpha virt. eigenvalues --    1.04149   1.07496   1.07799   1.09894   1.11401
 Alpha virt. eigenvalues --    1.14487   1.14843   1.16296   1.17041   1.17938
 Alpha virt. eigenvalues --    1.20955   1.21434   1.24110   1.28982   1.29970
 Alpha virt. eigenvalues --    1.35109   1.37934   1.43823   1.45368   1.55842
 Alpha virt. eigenvalues --    1.58278   1.59132   1.60539   1.61032   1.61906
 Alpha virt. eigenvalues --    1.62566   1.66365   1.67075   1.67460   1.74680
 Alpha virt. eigenvalues --    1.75151   1.77810   1.80257   1.82712   1.87670
 Alpha virt. eigenvalues --    1.88378   1.91439   1.91703   1.96167   2.00357
 Alpha virt. eigenvalues --    2.00531   2.01984   2.03661   2.04690   2.05709
 Alpha virt. eigenvalues --    2.06841   2.12219   2.15255   2.17789   2.19733
 Alpha virt. eigenvalues --    2.23200   2.29115   2.31079   2.42647   2.45946
 Alpha virt. eigenvalues --    2.52027   2.54588   2.54620   2.58111   2.62529
 Alpha virt. eigenvalues --    2.71628   2.73408   2.74316   2.76698   2.81328
 Alpha virt. eigenvalues --    2.81777   2.83241   2.88307   2.89237   2.90525
 Alpha virt. eigenvalues --    2.90659   2.91832   2.95718   2.99623   3.00705
 Alpha virt. eigenvalues --    3.02770   3.06270   3.06839   3.15311   3.18526
 Alpha virt. eigenvalues --    3.18873   3.23509   3.27898   3.32027   3.34467
 Alpha virt. eigenvalues --    3.41409   3.44621   3.48383   3.49832   3.64046
 Alpha virt. eigenvalues --    3.66259   3.69568   3.74433   3.84324   3.87759
 Alpha virt. eigenvalues --    4.07868   4.17170   4.28476   4.30809   4.36825
 Alpha virt. eigenvalues --    4.40828   4.45986   4.95048   5.06219   5.15315
 Alpha virt. eigenvalues --    5.30643   5.49419   5.82855   6.09032  23.84215
 Alpha virt. eigenvalues --   23.94437  24.14147  24.21371  24.28354  24.30435
 Alpha virt. eigenvalues --   24.41838  50.04126  50.16620
          Condensed to atoms (all electrons):
               1          2          3          4          5          6
     1  C   10.954612  -3.402289  -1.477614   2.575024  -0.088728  -2.706943
     2  C   -3.402289  18.735651  -2.091560  -7.042186   0.848732  -0.828521
     3  C   -1.477614  -2.091560  12.317060   0.352574  -0.056837  -0.825765
     4  C    2.575024  -7.042186   0.352574  10.067798  -0.261322  -0.175074
     5  H   -0.088728   0.848732  -0.056837  -0.261322   0.480734  -0.115429
     6  C   -2.706943  -0.828521  -0.825765  -0.175074  -0.115429   9.234770
     7  C    0.805450  -0.882909  -2.874341   1.024835  -0.011325   0.546357
     8  H   -0.011252   0.050665   0.533188  -0.027177   0.001026  -0.090952
     9  C   -1.222412   2.014559   0.910392  -1.173043   0.052084  -0.234820
    10  H    0.058831  -0.216545   0.028927   0.502144  -0.015314   0.017779
    11  O   -0.206165  -0.261818  -0.053244   0.100473  -0.041920   0.458938
    12  O   -0.191382  -0.130039  -0.030454   0.077648  -0.007645   0.586780
    13  H    0.026788  -0.012943  -0.114061   0.012320  -0.000182   0.024218
    14  H    0.005119   0.040934   0.008908  -0.074257   0.001806  -0.017208
    15  H   -0.089451   0.002202   0.006250  -0.029112   0.002870   0.096796
               7          8          9         10         11         12
     1  C    0.805450  -0.011252  -1.222412   0.058831  -0.206165  -0.191382
     2  C   -0.882909   0.050665   2.014559  -0.216545  -0.261818  -0.130039
     3  C   -2.874341   0.533188   0.910392   0.028927  -0.053244  -0.030454
     4  C    1.024835  -0.027177  -1.173043   0.502144   0.100473   0.077648
     5  H   -0.011325   0.001026   0.052084  -0.015314  -0.041920  -0.007645
     6  C    0.546357  -0.090952  -0.234820   0.017779   0.458938   0.586780
     7  C    7.726289  -0.118015  -0.796349   0.003619   0.075859   0.111127
     8  H   -0.118015   0.434101   0.036107  -0.000071  -0.006718  -0.009470
     9  C   -0.796349   0.036107   6.604317  -0.057907  -0.041095  -0.027789
    10  H    0.003619  -0.000071  -0.057907   0.476186   0.003484   0.000937
    11  O    0.075859  -0.006718  -0.041095   0.003484   8.004883  -0.127088
    12  O    0.111127  -0.009470  -0.027789   0.000937  -0.127088   8.089022
    13  H    0.445202  -0.010242  -0.045660  -0.000591   0.001297   0.002065
    14  H   -0.053095   0.001133   0.445047  -0.008717  -0.000657  -0.000483
    15  H    0.012815  -0.000665  -0.003874  -0.000138   0.266271  -0.009197
              13         14         15
     1  C    0.026788   0.005119  -0.089451
     2  C   -0.012943   0.040934   0.002202
     3  C   -0.114061   0.008908   0.006250
     4  C    0.012320  -0.074257  -0.029112
     5  H   -0.000182   0.001806   0.002870
     6  C    0.024218  -0.017208   0.096796
     7  C    0.445202  -0.053095   0.012815
     8  H   -0.010242   0.001133  -0.000665
     9  C   -0.045660   0.445047  -0.003874
    10  H   -0.000591  -0.008717  -0.000138
    11  O    0.001297  -0.000657   0.266271
    12  O    0.002065  -0.000483  -0.009197
    13  H    0.465871  -0.007573   0.000188
    14  H   -0.007573   0.471836  -0.000149
    15  H    0.000188  -0.000149   0.412906
 Mulliken charges:
               1
     1  C    0.970413
     2  C   -0.823932
     3  C   -0.633422
     4  C    0.069355
     5  H    0.211451
     6  C    0.029074
     7  C   -0.015518
     8  H    0.218343
     9  C   -0.459557
    10  H    0.207378
    11  O   -0.172499
    12  O   -0.334031
    13  H    0.213303
    14  H    0.187356
    15  H    0.332287
 Sum of Mulliken charges =  -0.00000
 Mulliken charges with hydrogens summed into heavy atoms:
               1
     1  C    0.970413
     2  C   -0.612482
     3  C   -0.415079
     4  C    0.276733
     6  C    0.029074
     7  C    0.197785
     9  C   -0.272201
    11  O    0.159788
    12  O   -0.334031
 Electronic spatial extent (au):  <R**2>=           1158.0561
 Charge=              0.0000 electrons
 Dipole moment (field-independent basis, Debye):
    X=              1.3896    Y=             -2.3151    Z=              0.3183  Tot=              2.7188
 Quadrupole moment (field-independent basis, Debye-Ang):
   XX=            -43.6993   YY=            -49.8707   ZZ=            -54.0706
   XY=              8.0865   XZ=             -1.2150   YZ=             -0.5664
 Traceless Quadrupole moment (field-independent basis, Debye-Ang):
   XX=              5.5142   YY=             -0.6572   ZZ=             -4.8571
   XY=              8.0865   XZ=             -1.2150   YZ=             -0.5664
 Octapole moment (field-independent basis, Debye-Ang**2):
  XXX=            -19.7243  YYY=             -4.2447  ZZZ=              0.0530  XYY=              7.2331
  XXY=            -26.4525  XXZ=              4.0997  XZZ=            -11.4842  YZZ=             -0.4627
  YYZ=              0.4238  XYZ=              1.6872
 Hexadecapole moment (field-independent basis, Debye-Ang**3):
 XXXX=           -879.5343 YYYY=           -358.8228 ZZZZ=            -58.5602 XXXY=             90.1400
 XXXZ=            -14.5787 YYYX=             16.4618 YYYZ=             -1.0451 ZZZX=             -0.5958
 ZZZY=             -0.1704 XXYY=           -233.8480 XXZZ=           -194.0934 YYZZ=            -78.9041
 XXYZ=             -5.3140 YYXZ=             -1.3583 ZZXY=              2.1493
 N-N= 4.095619780489D+02 E-N=-1.802640812885D+03  KE= 4.201229375554D+02
 No NMR shielding tensors so no spin-rotation constants.
 Leave Link  601 at Sun Nov 20 17:26:35 2022, MaxMem= 16106127360 cpu:               3.2 elap:               0.1
 (Enter /opt/ap/G16/B01/g16/l9999.exe)
 1\1\GINC-N07\SP\RwB97XD\6-311++G(d,p)\C7H6O2\ROOT\20-Nov-2022\0\\#P wB
 97XD/6-311++G(d,p) scf=maxcycle=512\\_conf015.gjf nmol_natom 1_15\\0,1
 \C\C,1,1.39016191\C,1,1.39194539,2,119.895942\C,2,1.38669027,1,119.880
 75721,3,0.70825972,0\H,2,0.98744251,1,119.71654057,3,-179.90726164,0\C
 ,1,1.48428757,2,119.93615286,4,-179.87772406,0\C,3,1.40101108,1,119.72
 36454,2,-0.26266839,0\H,3,0.9902154,1,119.1886159,2,178.85397616,0\C,4
 ,1.37899003,2,120.45785903,1,-0.48041454,0\H,4,0.9834739,2,120.3044270
 6,1,179.36166981,0\O,6,1.27459751,1,118.00615353,2,-1.25976832,0\O,6,1
 .26362572,1,118.77715367,2,179.20603801,0\H,7,0.98977053,3,119.3786157
 8,1,-178.93545741,0\H,9,0.99498061,4,119.46722635,2,-178.58826714,0\H,
 11,0.89680392,6,118.15823763,1,-195.,0\\Version=ES64L-G16RevB.01\State
 =1-A\HF=-420.7460971\RMSD=8.070e-09\Dipole=0.0445924,0.1262357,1.06123
 23\Quadrupole=8.1097195,-3.6223441,-4.4873754,-0.9278151,-1.3431186,-0
 .0698077\PG=C01 [X(C7H6O2)]\\@


 DON'T WORRY CHARLIE BROWN...WE LEARN MORE FROM LOSING 
 THAN WE DO FROM WINNING.
 THEN THAT MAKES ME THE SMARTEST PERSON IN THE WORLD...
 CHARLES SCHULZ 'PEANUTS'
 Job cpu time:       0 days  0 hours  7 minutes 20.4 seconds.
 Elapsed time:       0 days  0 hours  0 minutes 13.9 seconds.
 File lengths (MBytes):  RWF=     35 Int=      0 D2E=      0 Chk=      4 Scr=      1
 Normal termination of Gaussian 16 at Sun Nov 20 17:26:35 2022.
