 Entering Gaussian System, Link 0=g16
 Input=_conf024.gjf
 Output=_conf024.log
 Initial command:
 /opt/ap/G16/B01/g16/l1.exe "/tmp2/scr/Gau-7216.inp" -scrdir="/tmp2/scr/"
 Entering Link 1 = /opt/ap/G16/B01/g16/l1.exe PID=      7217.
  
 Copyright (c) 1988-2017, Gaussian, Inc.  All Rights Reserved.
  
 This is part of the Gaussian(R) 16 program.  It is based on
 the Gaussian(R) 09 system (copyright 2009, Gaussian, Inc.),
 the Gaussian(R) 03 system (copyright 2003, Gaussian, Inc.),
 the Gaussian(R) 98 system (copyright 1998, Gaussian, Inc.),
 the Gaussian(R) 94 system (copyright 1995, Gaussian, Inc.),
 the Gaussian 92(TM) system (copyright 1992, Gaussian, Inc.),
 the Gaussian 90(TM) system (copyright 1990, Gaussian, Inc.),
 the Gaussian 88(TM) system (copyright 1988, Gaussian, Inc.),
 the Gaussian 86(TM) system (copyright 1986, Carnegie Mellon
 University), and the Gaussian 82(TM) system (copyright 1983,
 Carnegie Mellon University). Gaussian is a federally registered
 trademark of Gaussian, Inc.
  
 This software contains proprietary and confidential information,
 including trade secrets, belonging to Gaussian, Inc.
  
 This software is provided under written license and may be
 used, copied, transmitted, or stored only in accord with that
 written license.
  
 The following legend is applicable only to US Government
 contracts under FAR:
  
                    RESTRICTED RIGHTS LEGEND
  
 Use, reproduction and disclosure by the US Government is
 subject to restrictions as set forth in subparagraphs (a)
 and (c) of the Commercial Computer Software - Restricted
 Rights clause in FAR 52.227-19.
  
 Gaussian, Inc.
 340 Quinnipiac St., Bldg. 40, Wallingford CT 06492
  
  
 ---------------------------------------------------------------
 Warning -- This program may not be used in any manner that
 competes with the business of Gaussian, Inc. or will provide
 assistance to any competitor of Gaussian, Inc.  The licensee
 of this program is prohibited from giving any competitor of
 Gaussian, Inc. access to this program.  By using this program,
 the user acknowledges that Gaussian, Inc. is engaged in the
 business of creating and licensing software in the field of
 computational chemistry and represents and warrants to the
 licensee that it is not a competitor of Gaussian, Inc. and that
 it will not use this program in any manner prohibited above.
 ---------------------------------------------------------------
  

 Cite this work as:
 Gaussian 16, Revision B.01,
 M. J. Frisch, G. W. Trucks, H. B. Schlegel, G. E. Scuseria, 
 M. A. Robb, J. R. Cheeseman, G. Scalmani, V. Barone, 
 G. A. Petersson, H. Nakatsuji, X. Li, M. Caricato, A. V. Marenich, 
 J. Bloino, B. G. Janesko, R. Gomperts, B. Mennucci, H. P. Hratchian, 
 J. V. Ortiz, A. F. Izmaylov, J. L. Sonnenberg, D. Williams-Young, 
 F. Ding, F. Lipparini, F. Egidi, J. Goings, B. Peng, A. Petrone, 
 T. Henderson, D. Ranasinghe, V. G. Zakrzewski, J. Gao, N. Rega, 
 G. Zheng, W. Liang, M. Hada, M. Ehara, K. Toyota, R. Fukuda, 
 J. Hasegawa, M. Ishida, T. Nakajima, Y. Honda, O. Kitao, H. Nakai, 
 T. Vreven, K. Throssell, J. A. Montgomery, Jr., J. E. Peralta, 
 F. Ogliaro, M. J. Bearpark, J. J. Heyd, E. N. Brothers, K. N. Kudin, 
 V. N. Staroverov, T. A. Keith, R. Kobayashi, J. Normand, 
 K. Raghavachari, A. P. Rendell, J. C. Burant, S. S. Iyengar, 
 J. Tomasi, M. Cossi, J. M. Millam, M. Klene, C. Adamo, R. Cammi, 
 J. W. Ochterski, R. L. Martin, K. Morokuma, O. Farkas, 
 J. B. Foresman, and D. J. Fox, Gaussian, Inc., Wallingford CT, 2016.
 
 ******************************************
 Gaussian 16:  ES64L-G16RevB.01 20-Dec-2017
                20-Nov-2022 
 ******************************************
 %nprocshared=32
 Will use up to   32 processors via shared memory.
 %mem=120GB
 %chk=_conf024.chk
 ----------------------------------------
 #P wB97XD/6-311++G(d,p) scf=maxcycle=512
 ----------------------------------------
 1/38=1,172=1/1;
 2/12=2,17=6,18=5,40=1/2;
 3/5=4,6=6,7=1111,11=2,25=1,30=1,74=-58/1,2,3;
 4//1;
 5/5=2,7=512,38=5/2;
 6/7=2,8=2,9=2,10=2,28=1/1;
 99/5=1,9=1/99;
 Leave Link    1 at Sun Nov 20 17:27:10 2022, MaxMem= 16106127360 cpu:               2.9 elap:               0.1
 (Enter /opt/ap/G16/B01/g16/l101.exe)
 ----------------------------
 _conf024.gjf nmol_natom 1_15
 ----------------------------
 Symbolic Z-matrix:
 Charge =  0 Multiplicity = 1
 C
 C                    1     1.39016 
 C                    1     1.39195  2     119.89594 
 C                    2     1.38669  1     119.88076  3     0.70826  0
 H                    2     0.98744  1     119.71654  3    -179.90726  0
 C                    1     1.48429  2     119.93615  4    -179.87772  0
 C                    3     1.40101  1     119.72365  2    -0.26267  0
 H                    3     0.99022  1     119.18862  2     178.85398  0
 C                    4     1.37899  2     120.45786  1    -0.48041  0
 H                    4     0.98347  2     120.30443  1     179.36167  0
 O                    6     1.2746   1     118.00615  2    -1.25977  0
 O                    6     1.26363  1     118.77715  2     179.20604  0
 H                    7     0.98977  3     119.37862  1    -178.93546  0
 H                    9     0.99498  4     119.46723  2    -178.58827  0
 H                    11    0.8968   6     118.15824  1    -150.     0
 
 ITRead=  0  0  0  0  0  0  0  0  0  0  0  0  0  0  0
 MicOpt= -1 -1 -1 -1 -1 -1 -1 -1 -1 -1 -1 -1 -1 -1 -1
 NAtoms=     15 NQM=       15 NQMF=       0 NMMI=      0 NMMIF=      0
                NMic=       0 NMicF=      0.
                    Isotopes and Nuclear Properties:
 (Nuclear quadrupole moments (NQMom) in fm**2, nuclear magnetic moments (NMagM)
  in nuclear magnetons)

  Atom         1           2           3           4           5           6           7           8           9          10
 IAtWgt=          12          12          12          12           1          12          12           1          12           1
 AtmWgt=  12.0000000  12.0000000  12.0000000  12.0000000   1.0078250  12.0000000  12.0000000   1.0078250  12.0000000   1.0078250
 NucSpn=           0           0           0           0           1           0           0           1           0           1
 AtZEff=  -0.0000000  -0.0000000  -0.0000000  -0.0000000  -0.0000000  -0.0000000  -0.0000000  -0.0000000  -0.0000000  -0.0000000
 NQMom=    0.0000000   0.0000000   0.0000000   0.0000000   0.0000000   0.0000000   0.0000000   0.0000000   0.0000000   0.0000000
 NMagM=    0.0000000   0.0000000   0.0000000   0.0000000   2.7928460   0.0000000   0.0000000   2.7928460   0.0000000   2.7928460
 AtZNuc=   6.0000000   6.0000000   6.0000000   6.0000000   1.0000000   6.0000000   6.0000000   1.0000000   6.0000000   1.0000000

  Atom        11          12          13          14          15
 IAtWgt=          16          16           1           1           1
 AtmWgt=  15.9949146  15.9949146   1.0078250   1.0078250   1.0078250
 NucSpn=           0           0           1           1           1
 AtZEff=  -0.0000000  -0.0000000  -0.0000000  -0.0000000  -0.0000000
 NQMom=    0.0000000   0.0000000   0.0000000   0.0000000   0.0000000
 NMagM=    0.0000000   0.0000000   2.7928460   2.7928460   2.7928460
 AtZNuc=   8.0000000   8.0000000   1.0000000   1.0000000   1.0000000
 Leave Link  101 at Sun Nov 20 17:27:10 2022, MaxMem= 16106127360 cpu:               5.5 elap:               0.2
 (Enter /opt/ap/G16/B01/g16/l202.exe)
                          Input orientation:                          
 ---------------------------------------------------------------------
 Center     Atomic      Atomic             Coordinates (Angstroms)
 Number     Number       Type             X           Y           Z
 ---------------------------------------------------------------------
      1          6           0        0.000000    0.000000    0.000000
      2          6           0        0.000000    0.000000    1.390162
      3          6           0        1.206722    0.000000   -0.693782
      4          6           0        1.202258    0.014862    2.081006
      5          1           0       -0.857581   -0.001388    1.879646
      6          6           0       -1.286190   -0.013155   -0.740711
      7          6           0        2.415349    0.005578    0.014752
      8          1           0        1.194584   -0.017290   -1.683772
      9          6           0        2.400563    0.019708    1.398617
     10          1           0        1.209438    0.024411    3.064408
     11          8           0       -2.365984   -0.048941   -0.064425
     12          8           0       -1.260842    0.002453   -2.003986
     13          1           0        3.270315    0.021574   -0.483669
     14          1           0        3.254554    0.009066    1.909081
     15          1           0       -3.079664   -0.452644   -0.427663
 ---------------------------------------------------------------------
                    Distance matrix (angstroms):
                    1          2          3          4          5
     1  C    0.000000
     2  C    1.390162   0.000000
     3  C    1.391945   2.408112   0.000000
     4  C    2.403379   1.386690   2.774832   0.000000
     5  H    2.066039   0.987443   3.299073   2.069721   0.000000
     6  C    1.484288   2.488991   2.493388   3.762345   2.655206
     7  C    2.415401   2.779513   1.401011   2.396056   3.766955
     8  H    2.064563   3.297939   0.990215   3.764924   4.112127
     9  C    2.778349   2.400659   2.409104   1.378990   3.293530
    10  H    3.294530   2.065535   3.758270   0.983474   2.382624
    11  O    2.367367   2.777786   3.628045   4.164047   2.461088
    12  O    2.367633   3.620769   2.793834   4.770133   3.904515
    13  H    3.305958   3.769173   2.074374   3.294611   4.756607
    14  H    3.773167   3.295676   3.311886   2.059493   4.112253
    15  H    3.141992   3.604678   4.318427   4.984660   3.234959
                    6          7          8          9         10
     6  C    0.000000
     7  C    3.777892   0.000000
     8  H    2.653982   2.091836   0.000000
     9  C    4.262622   1.384016   3.310118   0.000000
    10  H    4.550659   3.279477   4.748386   2.047842   0.000000
    11  O    1.274598   4.782299   3.911641   4.986499   4.751696
    12  O    1.263626   4.194007   2.476296   4.998389   5.638384
    13  H    4.563881   0.989771   2.398003   2.073517   4.103177
    14  H    5.257398   2.071897   4.141589   0.994981   2.348938
    15  H    1.872885   5.531805   4.476219   5.795800   5.551445
                   11         12         13         14         15
    11  O    0.000000
    12  O    2.232908   0.000000
    13  H    5.652309   4.779447   0.000000
    14  H    5.957225   5.975025   2.392834   0.000000
    15  H    0.896804   2.449494   6.367908   6.767264   0.000000
 Stoichiometry    C7H6O2
 Framework group  C1[X(C7H6O2)]
 Deg. of freedom    39
 Full point group                 C1      NOp   1
 Largest Abelian subgroup         C1      NOp   1
 Largest concise Abelian subgroup C1      NOp   1
                         Standard orientation:                         
 ---------------------------------------------------------------------
 Center     Atomic      Atomic             Coordinates (Angstroms)
 Number     Number       Type             X           Y           Z
 ---------------------------------------------------------------------
      1          6           0        0.221977    0.028975   -0.012584
      2          6           0       -0.441869   -1.192435   -0.016613
      3          6           0       -0.506829    1.214647    0.010594
      4          6           0       -1.828164   -1.225279   -0.012387
      5          1           0        0.077793   -2.031938   -0.031686
      6          6           0        1.705795    0.065581   -0.019845
      7          6           0       -1.907037    1.169199    0.024163
      8          1           0       -0.023172    2.078478    0.030537
      9          6           0       -2.555084   -0.053584    0.005765
     10          1           0       -2.304212   -2.085773   -0.024659
     11          8           0        2.331951   -1.044512   -0.004965
     12          8           0        2.286561    1.187779   -0.031344
     13          1           0       -2.420340    2.015465    0.024611
     14          1           0       -3.548931   -0.094490    0.029906
     15          1           0        3.138042   -1.070498    0.387208
 ---------------------------------------------------------------------
 Rotational constants (GHZ):           3.9607716           1.2401009           0.9450715
 Leave Link  202 at Sun Nov 20 17:27:10 2022, MaxMem= 16106127360 cpu:               0.7 elap:               0.0
 (Enter /opt/ap/G16/B01/g16/l301.exe)
 Standard basis: 6-311++G(d,p) (5D, 7F)
 Ernie: Thresh=  0.10000D-02 Tol=  0.10000D-05 Strict=F.
 There are   249 symmetry adapted cartesian basis functions of A   symmetry.
 There are   240 symmetry adapted basis functions of A   symmetry.
   240 basis functions,   378 primitive gaussians,   249 cartesian basis functions
    32 alpha electrons       32 beta electrons
       nuclear repulsion energy       409.5941182234 Hartrees.
 IExCor= 4639 DFT=T Ex+Corr=wB97XD ExCW=0 ScaHFX=  1.000000
 ScaDFX=  1.000000  1.000000  1.000000  1.000000 ScalE2=  1.000000  1.000000
 IRadAn=      5 IRanWt=     -1 IRanGd=            0 ICorTp=0 IEmpDi=121
 HFx  wShort=  0.000000 wLong=  0.200000 cFull=  0.222036 cShort=  0.000000 cLong=  0.777964
 DFx  wShort=  0.000000 wLong=  0.200000 cFull=  0.000000 cShort=  0.000000 cLong=  1.000000
 NAtoms=   15 NActive=   15 NUniq=   15 SFac= 1.00D+00 NAtFMM=   60 NAOKFM=F Big=F
 Integral buffers will be    131072 words long.
 Raffenetti 2 integral format.
 Two-electron integral symmetry is turned on.
 R6Disp:  Grimme-D2 Dispersion energy=       -0.0063571374 Hartrees.
 Nuclear repulsion after empirical dispersion term =      409.5877610861 Hartrees.
 Leave Link  301 at Sun Nov 20 17:27:10 2022, MaxMem= 16106127360 cpu:               1.3 elap:               0.0
 (Enter /opt/ap/G16/B01/g16/l302.exe)
 NPDir=0 NMtPBC=     1 NCelOv=     1 NCel=       1 NClECP=     1 NCelD=      1
         NCelK=      1 NCelE2=     1 NClLst=     1 CellRange=     0.0.
 One-electron integrals computed using PRISM.
 One-electron integral symmetry used in STVInt
 NBasis=   240 RedAO= T EigKep=  1.22D-06  NBF=   240
 NBsUse=   240 1.00D-06 EigRej= -1.00D+00 NBFU=   240
 Precomputing XC quadrature grid using
 IXCGrd= 4 IRadAn=           5 IRanWt=          -1 IRanGd=           0 AccXCQ= 0.00D+00.
 Generated NRdTot=       0 NPtTot=           0 NUsed=           0 NTot=          32
 NSgBfM=   249   249   249   249   249 MxSgAt=    15 MxSgA2=    15.
 Leave Link  302 at Sun Nov 20 17:27:10 2022, MaxMem= 16106127360 cpu:               5.4 elap:               0.2
 (Enter /opt/ap/G16/B01/g16/l303.exe)
 DipDrv:  MaxL=1.
 Leave Link  303 at Sun Nov 20 17:27:10 2022, MaxMem= 16106127360 cpu:               3.5 elap:               0.1
 (Enter /opt/ap/G16/B01/g16/l401.exe)
 ExpMin= 3.60D-02 ExpMax= 8.59D+03 ExpMxC= 1.30D+03 IAcc=3 IRadAn=         5 AccDes= 0.00D+00
 Harris functional with IExCor= 4639 and IRadAn=       5 diagonalized for initial guess.
 HarFok:  IExCor= 4639 AccDes= 0.00D+00 IRadAn=         5 IDoV= 1 UseB2=F ITyADJ=14
 ICtDFT=  3500011 ScaDFX=  1.000000  1.000000  1.000000  1.000000
 FoFCou: FMM=F IPFlag=           0 FMFlag=      100000 FMFlg1=           0
         NFxFlg=           0 DoJE=T BraDBF=F KetDBF=T FulRan=T
         wScrn=  0.000000 ICntrl=       500 IOpCl=  0 I1Cent=   200000004 NGrid=           0
         NMat0=    1 NMatS0=      1 NMatT0=    0 NMatD0=    1 NMtDS0=    0 NMtDT0=    0
 Petite list used in FoFCou.
 Harris En= -403.250937135628    
 JPrj=0 DoOrth=F DoCkMO=F.
 Leave Link  401 at Sun Nov 20 17:27:11 2022, MaxMem= 16106127360 cpu:              27.2 elap:               0.9
 (Enter /opt/ap/G16/B01/g16/l502.exe)
 Integral symmetry usage will be decided dynamically.
 Closed shell SCF:
 Using DIIS extrapolation, IDIIS=  1040.
 NGot= 16106127360 LenX= 16105992971 LenY= 16105930529
 Requested convergence on RMS density matrix=1.00D-08 within 512 cycles.
 Requested convergence on MAX density matrix=1.00D-06.
 Requested convergence on             energy=1.00D-06.
 No special actions if energy rises.
 Fock matrices will be formed incrementally for  20 cycles.

 Cycle   1  Pass 1  IDiag  1:
 FoFJK:  IHMeth= 1 ICntrl=       0 DoSepK=T KAlg= 0 I1Cent=           0 FoldK=F
 IRaf=         1 NMat=       1 IRICut=       1 DoRegI=T DoRafI=F ISym2E= 0 IDoP0=0 IntGTp=1.
 FoFCou: FMM=F IPFlag=           0 FMFlag=      100000 FMFlg1=           0
         NFxFlg=           0 DoJE=T BraDBF=F KetDBF=F FulRan=T
         wScrn=  0.000000 ICntrl=       500 IOpCl=  0 I1Cent=           0 NGrid=           0
         NMat0=    1 NMatS0=      1 NMatT0=    0 NMatD0=    1 NMtDS0=    0 NMtDT0=    0
 Symmetry not used in FoFCou.
 E= -420.629257399442    
 DIIS: error= 7.85D-02 at cycle   1 NSaved=   1.
 NSaved= 1 IEnMin= 1 EnMin= -420.629257399442     IErMin= 1 ErrMin= 7.85D-02
 ErrMax= 7.85D-02  0.00D+00 EMaxC= 1.00D-01 BMatC= 8.59D-01 BMatP= 8.59D-01
 IDIUse=3 WtCom= 2.15D-01 WtEn= 7.85D-01
 Coeff-Com:  0.100D+01
 Coeff-En:   0.100D+01
 Coeff:      0.100D+01
 Gap=     0.426 Goal=   None    Shift=    0.000
 GapD=    0.426 DampG=2.000 DampE=0.500 DampFc=1.0000 IDamp=-1.
 RMSDP=3.01D-02 MaxDP=2.49D+00              OVMax= 1.03D-01

 Cycle   2  Pass 1  IDiag  1:
 RMSU=  1.45D-02    CP:  6.76D-01
 E= -420.700846186258     Delta-E=       -0.071588786815 Rises=F Damp=F
 DIIS: error= 1.19D-02 at cycle   2 NSaved=   2.
 NSaved= 2 IEnMin= 2 EnMin= -420.700846186258     IErMin= 2 ErrMin= 1.19D-02
 ErrMax= 1.19D-02  0.00D+00 EMaxC= 1.00D-01 BMatC= 5.43D-02 BMatP= 8.59D-01
 IDIUse=3 WtCom= 8.81D-01 WtEn= 1.19D-01
 Coeff-Com:  0.132D+00 0.868D+00
 Coeff-En:   0.801D-01 0.920D+00
 Coeff:      0.126D+00 0.874D+00
 Gap=     0.422 Goal=   None    Shift=    0.000
 RMSDP=7.10D-03 MaxDP=3.78D-01 DE=-7.16D-02 OVMax= 7.25D-02

 Cycle   3  Pass 1  IDiag  1:
 RMSU=  6.17D-03    CP:  6.54D-01  7.93D-01
 E= -420.717362594727     Delta-E=       -0.016516408469 Rises=F Damp=F
 DIIS: error= 1.20D-02 at cycle   3 NSaved=   3.
 NSaved= 3 IEnMin= 3 EnMin= -420.717362594727     IErMin= 2 ErrMin= 1.19D-02
 ErrMax= 1.20D-02  0.00D+00 EMaxC= 1.00D-01 BMatC= 3.27D-02 BMatP= 5.43D-02
 IDIUse=3 WtCom= 8.80D-01 WtEn= 1.20D-01
 Coeff-Com:  0.266D-01 0.443D+00 0.531D+00
 Coeff-En:   0.000D+00 0.373D+00 0.627D+00
 Coeff:      0.234D-01 0.434D+00 0.542D+00
 Gap=     0.359 Goal=   None    Shift=    0.000
 RMSDP=3.47D-03 MaxDP=2.26D-01 DE=-1.65D-02 OVMax= 4.91D-02

 Cycle   4  Pass 1  IDiag  1:
 RMSU=  1.73D-03    CP:  6.38D-01  9.03D-01  6.43D-01
 E= -420.741625196772     Delta-E=       -0.024262602045 Rises=F Damp=F
 DIIS: error= 2.52D-03 at cycle   4 NSaved=   4.
 NSaved= 4 IEnMin= 4 EnMin= -420.741625196772     IErMin= 4 ErrMin= 2.52D-03
 ErrMax= 2.52D-03  0.00D+00 EMaxC= 1.00D-01 BMatC= 1.68D-03 BMatP= 3.27D-02
 IDIUse=3 WtCom= 9.75D-01 WtEn= 2.52D-02
 Coeff-Com:  0.104D-01 0.221D+00 0.305D+00 0.463D+00
 Coeff-En:   0.000D+00 0.000D+00 0.000D+00 0.100D+01
 Coeff:      0.102D-01 0.216D+00 0.298D+00 0.477D+00
 Gap=     0.348 Goal=   None    Shift=    0.000
 RMSDP=9.95D-04 MaxDP=5.25D-02 DE=-2.43D-02 OVMax= 1.14D-02

 Cycle   5  Pass 1  IDiag  1:
 RMSU=  7.13D-04    CP:  6.33D-01  8.88D-01  7.01D-01  7.70D-01
 E= -420.742765703467     Delta-E=       -0.001140506695 Rises=F Damp=F
 DIIS: error= 4.63D-04 at cycle   5 NSaved=   5.
 NSaved= 5 IEnMin= 5 EnMin= -420.742765703467     IErMin= 5 ErrMin= 4.63D-04
 ErrMax= 4.63D-04  0.00D+00 EMaxC= 1.00D-01 BMatC= 4.93D-05 BMatP= 1.68D-03
 IDIUse=3 WtCom= 9.95D-01 WtEn= 4.63D-03
 Coeff-Com:  0.283D-03 0.145D-01 0.292D-01 0.155D+00 0.801D+00
 Coeff-En:   0.000D+00 0.000D+00 0.000D+00 0.000D+00 0.100D+01
 Coeff:      0.282D-03 0.144D-01 0.291D-01 0.154D+00 0.802D+00
 Gap=     0.348 Goal=   None    Shift=    0.000
 RMSDP=2.34D-04 MaxDP=1.30D-02 DE=-1.14D-03 OVMax= 2.46D-03

 Cycle   6  Pass 1  IDiag  1:
 RMSU=  1.25D-04    CP:  6.31D-01  8.92D-01  7.17D-01  7.82D-01  1.02D+00
 E= -420.742804453641     Delta-E=       -0.000038750174 Rises=F Damp=F
 DIIS: error= 1.90D-04 at cycle   6 NSaved=   6.
 NSaved= 6 IEnMin= 6 EnMin= -420.742804453641     IErMin= 6 ErrMin= 1.90D-04
 ErrMax= 1.90D-04  0.00D+00 EMaxC= 1.00D-01 BMatC= 7.22D-06 BMatP= 4.93D-05
 IDIUse=3 WtCom= 9.98D-01 WtEn= 1.90D-03
 Coeff-Com: -0.980D-03-0.170D-01-0.187D-01 0.149D-01 0.349D+00 0.673D+00
 Coeff-En:   0.000D+00 0.000D+00 0.000D+00 0.000D+00 0.000D+00 0.100D+01
 Coeff:     -0.979D-03-0.170D-01-0.187D-01 0.149D-01 0.348D+00 0.673D+00
 Gap=     0.348 Goal=   None    Shift=    0.000
 RMSDP=1.73D-04 MaxDP=1.59D-02 DE=-3.88D-05 OVMax= 8.21D-04

 Cycle   7  Pass 1  IDiag  1:
 RMSU=  4.47D-05    CP:  6.30D-01  8.90D-01  7.28D-01  7.89D-01  1.10D+00
                    CP:  1.09D+00
 E= -420.742811482044     Delta-E=       -0.000007028402 Rises=F Damp=F
 DIIS: error= 6.83D-05 at cycle   7 NSaved=   7.
 NSaved= 7 IEnMin= 7 EnMin= -420.742811482044     IErMin= 7 ErrMin= 6.83D-05
 ErrMax= 6.83D-05  0.00D+00 EMaxC= 1.00D-01 BMatC= 3.08D-07 BMatP= 7.22D-06
 IDIUse=1 WtCom= 1.00D+00 WtEn= 0.00D+00
 Coeff-Com: -0.243D-03-0.561D-02-0.707D-02-0.138D-01 0.223D-02 0.138D+00
 Coeff-Com:  0.887D+00
 Coeff:     -0.243D-03-0.561D-02-0.707D-02-0.138D-01 0.223D-02 0.138D+00
 Coeff:      0.887D+00
 Gap=     0.348 Goal=   None    Shift=    0.000
 RMSDP=4.67D-05 MaxDP=2.63D-03 DE=-7.03D-06 OVMax= 3.25D-04

 Cycle   8  Pass 1  IDiag  1:
 RMSU=  1.40D-05    CP:  6.29D-01  8.90D-01  7.31D-01  7.87D-01  1.14D+00
                    CP:  1.12D+00  1.05D+00
 E= -420.742812057030     Delta-E=       -0.000000574987 Rises=F Damp=F
 DIIS: error= 1.51D-05 at cycle   8 NSaved=   8.
 NSaved= 8 IEnMin= 8 EnMin= -420.742812057030     IErMin= 8 ErrMin= 1.51D-05
 ErrMax= 1.51D-05  0.00D+00 EMaxC= 1.00D-01 BMatC= 4.18D-08 BMatP= 3.08D-07
 IDIUse=1 WtCom= 1.00D+00 WtEn= 0.00D+00
 Coeff-Com:  0.303D-04 0.247D-03 0.117D-03-0.614D-02-0.375D-01-0.371D-01
 Coeff-Com:  0.244D+00 0.837D+00
 Coeff:      0.303D-04 0.247D-03 0.117D-03-0.614D-02-0.375D-01-0.371D-01
 Coeff:      0.244D+00 0.837D+00
 Gap=     0.348 Goal=   None    Shift=    0.000
 RMSDP=1.55D-05 MaxDP=8.18D-04 DE=-5.75D-07 OVMax= 1.24D-04

 Cycle   9  Pass 1  IDiag  1:
 RMSU=  4.87D-06    CP:  6.29D-01  8.90D-01  7.32D-01  7.83D-01  1.16D+00
                    CP:  1.15D+00  1.13D+00  1.24D+00
 E= -420.742812131065     Delta-E=       -0.000000074035 Rises=F Damp=F
 DIIS: error= 1.07D-05 at cycle   9 NSaved=   9.
 NSaved= 9 IEnMin= 9 EnMin= -420.742812131065     IErMin= 9 ErrMin= 1.07D-05
 ErrMax= 1.07D-05  0.00D+00 EMaxC= 1.00D-01 BMatC= 5.11D-09 BMatP= 4.18D-08
 IDIUse=1 WtCom= 1.00D+00 WtEn= 0.00D+00
 Coeff-Com:  0.387D-04 0.740D-03 0.894D-03-0.442D-03-0.108D-01-0.279D-01
 Coeff-Com: -0.250D-01 0.259D+00 0.803D+00
 Coeff:      0.387D-04 0.740D-03 0.894D-03-0.442D-03-0.108D-01-0.279D-01
 Coeff:     -0.250D-01 0.259D+00 0.803D+00
 Gap=     0.348 Goal=   None    Shift=    0.000
 RMSDP=5.16D-06 MaxDP=3.08D-04 DE=-7.40D-08 OVMax= 5.04D-05

 Cycle  10  Pass 1  IDiag  1:
 RMSU=  1.54D-06    CP:  6.29D-01  8.90D-01  7.32D-01  7.81D-01  1.16D+00
                    CP:  1.15D+00  1.16D+00  1.34D+00  1.27D+00
 E= -420.742812139927     Delta-E=       -0.000000008862 Rises=F Damp=F
 DIIS: error= 1.40D-06 at cycle  10 NSaved=  10.
 NSaved=10 IEnMin=10 EnMin= -420.742812139927     IErMin=10 ErrMin= 1.40D-06
 ErrMax= 1.40D-06  0.00D+00 EMaxC= 1.00D-01 BMatC= 6.77D-10 BMatP= 5.11D-09
 IDIUse=1 WtCom= 1.00D+00 WtEn= 0.00D+00
 Coeff-Com:  0.764D-05 0.167D-03 0.225D-03 0.416D-03 0.111D-02-0.466D-02
 Coeff-Com: -0.315D-01-0.194D-01 0.244D+00 0.810D+00
 Coeff:      0.764D-05 0.167D-03 0.225D-03 0.416D-03 0.111D-02-0.466D-02
 Coeff:     -0.315D-01-0.194D-01 0.244D+00 0.810D+00
 Gap=     0.348 Goal=   None    Shift=    0.000
 RMSDP=1.66D-06 MaxDP=1.06D-04 DE=-8.86D-09 OVMax= 1.49D-05

 Cycle  11  Pass 1  IDiag  1:
 RMSU=  3.71D-07    CP:  6.29D-01  8.90D-01  7.32D-01  7.80D-01  1.16D+00
                    CP:  1.15D+00  1.16D+00  1.40D+00  1.39D+00  1.16D+00
 E= -420.742812141016     Delta-E=       -0.000000001089 Rises=F Damp=F
 DIIS: error= 8.85D-07 at cycle  11 NSaved=  11.
 NSaved=11 IEnMin=11 EnMin= -420.742812141016     IErMin=11 ErrMin= 8.85D-07
 ErrMax= 8.85D-07  0.00D+00 EMaxC= 1.00D-01 BMatC= 1.13D-10 BMatP= 6.77D-10
 IDIUse=1 WtCom= 1.00D+00 WtEn= 0.00D+00
 Coeff-Com: -0.174D-05-0.157D-04-0.489D-05 0.254D-03 0.201D-02 0.149D-02
 Coeff-Com: -0.865D-02-0.472D-01-0.171D-01 0.315D+00 0.755D+00
 Coeff:     -0.174D-05-0.157D-04-0.489D-05 0.254D-03 0.201D-02 0.149D-02
 Coeff:     -0.865D-02-0.472D-01-0.171D-01 0.315D+00 0.755D+00
 Gap=     0.348 Goal=   None    Shift=    0.000
 RMSDP=7.01D-07 MaxDP=4.46D-05 DE=-1.09D-09 OVMax= 6.70D-06

 Cycle  12  Pass 1  IDiag  1:
 RMSU=  2.53D-07    CP:  6.29D-01  8.90D-01  7.32D-01  7.80D-01  1.16D+00
                    CP:  1.15D+00  1.16D+00  1.40D+00  1.44D+00  1.31D+00
                    CP:  1.09D+00
 E= -420.742812141184     Delta-E=       -0.000000000168 Rises=F Damp=F
 DIIS: error= 1.72D-07 at cycle  12 NSaved=  12.
 NSaved=12 IEnMin=12 EnMin= -420.742812141184     IErMin=12 ErrMin= 1.72D-07
 ErrMax= 1.72D-07  0.00D+00 EMaxC= 1.00D-01 BMatC= 9.18D-12 BMatP= 1.13D-10
 IDIUse=1 WtCom= 1.00D+00 WtEn= 0.00D+00
 Coeff-Com: -0.111D-05-0.183D-04-0.196D-04 0.351D-04 0.449D-03 0.675D-03
 Coeff-Com:  0.991D-03-0.111D-01-0.256D-01 0.103D-01 0.195D+00 0.829D+00
 Coeff:     -0.111D-05-0.183D-04-0.196D-04 0.351D-04 0.449D-03 0.675D-03
 Coeff:      0.991D-03-0.111D-01-0.256D-01 0.103D-01 0.195D+00 0.829D+00
 Gap=     0.348 Goal=   None    Shift=    0.000
 RMSDP=1.41D-07 MaxDP=1.01D-05 DE=-1.68D-10 OVMax= 3.03D-06

 Cycle  13  Pass 1  IDiag  1:
 RMSU=  6.55D-08    CP:  6.29D-01  8.90D-01  7.32D-01  7.80D-01  1.16D+00
                    CP:  1.15D+00  1.16D+00  1.40D+00  1.45D+00  1.33D+00
                    CP:  1.17D+00  1.02D+00
 E= -420.742812141216     Delta-E=       -0.000000000032 Rises=F Damp=F
 DIIS: error= 1.04D-07 at cycle  13 NSaved=  13.
 NSaved=13 IEnMin=13 EnMin= -420.742812141216     IErMin=13 ErrMin= 1.04D-07
 ErrMax= 1.04D-07  0.00D+00 EMaxC= 1.00D-01 BMatC= 1.61D-12 BMatP= 9.18D-12
 IDIUse=1 WtCom= 1.00D+00 WtEn= 0.00D+00
 Coeff-Com:  0.398D-07-0.391D-05-0.713D-05-0.421D-04-0.271D-03-0.128D-03
 Coeff-Com:  0.208D-02 0.588D-02-0.312D-02-0.585D-01-0.105D+00 0.211D+00
 Coeff-Com:  0.948D+00
 Coeff:      0.398D-07-0.391D-05-0.713D-05-0.421D-04-0.271D-03-0.128D-03
 Coeff:      0.208D-02 0.588D-02-0.312D-02-0.585D-01-0.105D+00 0.211D+00
 Coeff:      0.948D+00
 Gap=     0.348 Goal=   None    Shift=    0.000
 RMSDP=8.38D-08 MaxDP=7.45D-06 DE=-3.21D-11 OVMax= 2.13D-06

 Cycle  14  Pass 1  IDiag  1:
 RMSU=  2.53D-08    CP:  6.29D-01  8.90D-01  7.32D-01  7.80D-01  1.16D+00
                    CP:  1.15D+00  1.16D+00  1.40D+00  1.45D+00  1.34D+00
                    CP:  1.21D+00  1.14D+00  1.33D+00
 E= -420.742812141215     Delta-E=        0.000000000001 Rises=F Damp=F
 DIIS: error= 4.45D-08 at cycle  14 NSaved=  14.
 NSaved=14 IEnMin=13 EnMin= -420.742812141216     IErMin=14 ErrMin= 4.45D-08
 ErrMax= 4.45D-08  0.00D+00 EMaxC= 1.00D-01 BMatC= 1.58D-13 BMatP= 1.61D-12
 IDIUse=1 WtCom= 1.00D+00 WtEn= 0.00D+00
 Coeff-Com:  0.860D-07 0.163D-05 0.182D-05-0.440D-05-0.670D-04-0.517D-04
 Coeff-Com: -0.322D-04 0.140D-02 0.250D-02-0.432D-02-0.244D-01-0.812D-01
 Coeff-Com:  0.300D-01 0.108D+01
 Coeff:      0.860D-07 0.163D-05 0.182D-05-0.440D-05-0.670D-04-0.517D-04
 Coeff:     -0.322D-04 0.140D-02 0.250D-02-0.432D-02-0.244D-01-0.812D-01
 Coeff:      0.300D-01 0.108D+01
 Gap=     0.348 Goal=   None    Shift=    0.000
 RMSDP=2.91D-08 MaxDP=2.25D-06 DE= 1.02D-12 OVMax= 8.99D-07

 Cycle  15  Pass 1  IDiag  1:
 RMSU=  8.17D-09    CP:  6.29D-01  8.90D-01  7.32D-01  7.80D-01  1.16D+00
                    CP:  1.15D+00  1.16D+00  1.40D+00  1.45D+00  1.33D+00
                    CP:  1.21D+00  1.13D+00  1.53D+00  1.32D+00
 E= -420.742812141217     Delta-E=       -0.000000000002 Rises=F Damp=F
 DIIS: error= 2.52D-08 at cycle  15 NSaved=  15.
 NSaved=15 IEnMin=15 EnMin= -420.742812141217     IErMin=15 ErrMin= 2.52D-08
 ErrMax= 2.52D-08  0.00D+00 EMaxC= 1.00D-01 BMatC= 4.15D-14 BMatP= 1.58D-13
 IDIUse=1 WtCom= 1.00D+00 WtEn= 0.00D+00
 Coeff-Com:  0.203D-07 0.116D-05 0.178D-05 0.521D-05 0.177D-04 0.957D-05
 Coeff-Com: -0.337D-03-0.389D-03 0.140D-02 0.774D-02 0.826D-02-0.572D-01
 Coeff-Com: -0.140D+00 0.381D+00 0.799D+00
 Coeff:      0.203D-07 0.116D-05 0.178D-05 0.521D-05 0.177D-04 0.957D-05
 Coeff:     -0.337D-03-0.389D-03 0.140D-02 0.774D-02 0.826D-02-0.572D-01
 Coeff:     -0.140D+00 0.381D+00 0.799D+00
 Gap=     0.348 Goal=   None    Shift=    0.000
 RMSDP=7.28D-09 MaxDP=2.71D-07 DE=-1.82D-12 OVMax= 2.78D-07

 SCF Done:  E(RwB97XD) =  -420.742812141     A.U. after   15 cycles
            NFock= 15  Conv=0.73D-08     -V/T= 2.0015
 KE= 4.201283557940D+02 PE=-1.802699262365D+03 EE= 5.522403333436D+02
 Leave Link  502 at Sun Nov 20 17:27:24 2022, MaxMem= 16106127360 cpu:             409.2 elap:              12.8
 (Enter /opt/ap/G16/B01/g16/l601.exe)
 Copying SCF densities to generalized density rwf, IOpCl= 0 IROHF=0.

 **********************************************************************

            Population analysis using the SCF Density.

 **********************************************************************

 Orbital symmetries:
       Occupied  (A) (A) (A) (A) (A) (A) (A) (A) (A) (A) (A) (A)
                 (A) (A) (A) (A) (A) (A) (A) (A) (A) (A) (A) (A)
                 (A) (A) (A) (A) (A) (A) (A) (A)
       Virtual   (A) (A) (A) (A) (A) (A) (A) (A) (A) (A) (A) (A)
                 (A) (A) (A) (A) (A) (A) (A) (A) (A) (A) (A) (A)
                 (A) (A) (A) (A) (A) (A) (A) (A) (A) (A) (A) (A)
                 (A) (A) (A) (A) (A) (A) (A) (A) (A) (A) (A) (A)
                 (A) (A) (A) (A) (A) (A) (A) (A) (A) (A) (A) (A)
                 (A) (A) (A) (A) (A) (A) (A) (A) (A) (A) (A) (A)
                 (A) (A) (A) (A) (A) (A) (A) (A) (A) (A) (A) (A)
                 (A) (A) (A) (A) (A) (A) (A) (A) (A) (A) (A) (A)
                 (A) (A) (A) (A) (A) (A) (A) (A) (A) (A) (A) (A)
                 (A) (A) (A) (A) (A) (A) (A) (A) (A) (A) (A) (A)
                 (A) (A) (A) (A) (A) (A) (A) (A) (A) (A) (A) (A)
                 (A) (A) (A) (A) (A) (A) (A) (A) (A) (A) (A) (A)
                 (A) (A) (A) (A) (A) (A) (A) (A) (A) (A) (A) (A)
                 (A) (A) (A) (A) (A) (A) (A) (A) (A) (A) (A) (A)
                 (A) (A) (A) (A) (A) (A) (A) (A) (A) (A) (A) (A)
                 (A) (A) (A) (A) (A) (A) (A) (A) (A) (A) (A) (A)
                 (A) (A) (A) (A) (A) (A) (A) (A) (A) (A) (A) (A)
                 (A) (A) (A) (A)
 The electronic state is 1-A.
 Alpha  occ. eigenvalues --  -19.31280 -19.22914 -10.43163 -10.31001 -10.29329
 Alpha  occ. eigenvalues --  -10.29314 -10.29208 -10.29007 -10.28751  -1.25600
 Alpha  occ. eigenvalues --   -1.10664  -0.98079  -0.88857  -0.87026  -0.80390
 Alpha  occ. eigenvalues --   -0.73396  -0.71989  -0.65916  -0.60828  -0.58649
 Alpha  occ. eigenvalues --   -0.56672  -0.56095  -0.54338  -0.53485  -0.48606
 Alpha  occ. eigenvalues --   -0.47303  -0.45512  -0.44630  -0.41195  -0.36133
 Alpha  occ. eigenvalues --   -0.34673  -0.34323
 Alpha virt. eigenvalues --    0.00464   0.03701   0.04281   0.04519   0.05279
 Alpha virt. eigenvalues --    0.06474   0.07809   0.08712   0.10182   0.11125
 Alpha virt. eigenvalues --    0.11882   0.12911   0.13364   0.14331   0.14623
 Alpha virt. eigenvalues --    0.16008   0.16348   0.16936   0.17348   0.17914
 Alpha virt. eigenvalues --    0.18139   0.19527   0.20097   0.20189   0.20424
 Alpha virt. eigenvalues --    0.21168   0.21598   0.21683   0.23435   0.23825
 Alpha virt. eigenvalues --    0.25515   0.26310   0.26894   0.27905   0.28170
 Alpha virt. eigenvalues --    0.29608   0.29943   0.30675   0.30899   0.32093
 Alpha virt. eigenvalues --    0.32228   0.33178   0.34428   0.35343   0.36025
 Alpha virt. eigenvalues --    0.36376   0.37106   0.38114   0.39755   0.39903
 Alpha virt. eigenvalues --    0.41643   0.42091   0.42884   0.44123   0.45934
 Alpha virt. eigenvalues --    0.46672   0.50260   0.53316   0.54576   0.57631
 Alpha virt. eigenvalues --    0.59753   0.60443   0.61944   0.63745   0.64206
 Alpha virt. eigenvalues --    0.64763   0.65080   0.65737   0.66505   0.69005
 Alpha virt. eigenvalues --    0.69818   0.72175   0.73783   0.74209   0.75188
 Alpha virt. eigenvalues --    0.76744   0.81040   0.82495   0.83607   0.86309
 Alpha virt. eigenvalues --    0.88522   0.90406   0.92960   0.93724   0.94663
 Alpha virt. eigenvalues --    0.96406   0.97020   0.97616   0.99821   1.00540
 Alpha virt. eigenvalues --    1.04096   1.07260   1.07867   1.09640   1.11336
 Alpha virt. eigenvalues --    1.14157   1.14901   1.16178   1.16742   1.18019
 Alpha virt. eigenvalues --    1.21376   1.21453   1.24212   1.28233   1.29202
 Alpha virt. eigenvalues --    1.34826   1.40146   1.43876   1.45563   1.55165
 Alpha virt. eigenvalues --    1.58423   1.59030   1.60563   1.60994   1.62143
 Alpha virt. eigenvalues --    1.62618   1.66031   1.66966   1.67618   1.74816
 Alpha virt. eigenvalues --    1.75139   1.77411   1.79568   1.82750   1.87636
 Alpha virt. eigenvalues --    1.88279   1.91045   1.91899   1.95206   2.00349
 Alpha virt. eigenvalues --    2.00399   2.02127   2.03586   2.04450   2.05396
 Alpha virt. eigenvalues --    2.06964   2.11140   2.15339   2.17889   2.19477
 Alpha virt. eigenvalues --    2.23175   2.29090   2.29517   2.42765   2.45957
 Alpha virt. eigenvalues --    2.51917   2.53960   2.54512   2.57884   2.59329
 Alpha virt. eigenvalues --    2.71595   2.72863   2.75069   2.77153   2.81120
 Alpha virt. eigenvalues --    2.81751   2.83093   2.88234   2.89433   2.90488
 Alpha virt. eigenvalues --    2.90730   2.91814   2.96090   2.99628   3.00422
 Alpha virt. eigenvalues --    3.04503   3.05985   3.06290   3.15401   3.18589
 Alpha virt. eigenvalues --    3.18866   3.23315   3.27993   3.31746   3.37366
 Alpha virt. eigenvalues --    3.39459   3.45452   3.48485   3.50126   3.63789
 Alpha virt. eigenvalues --    3.66267   3.69075   3.74286   3.84341   3.87667
 Alpha virt. eigenvalues --    4.05760   4.16941   4.28414   4.30760   4.36724
 Alpha virt. eigenvalues --    4.40503   4.45363   4.94932   5.08975   5.15459
 Alpha virt. eigenvalues --    5.30520   5.48204   5.82887   6.08364  23.84065
 Alpha virt. eigenvalues --   23.94473  24.14110  24.21350  24.28327  24.30406
 Alpha virt. eigenvalues --   24.41824  50.04288  50.16571
          Condensed to atoms (all electrons):
               1          2          3          4          5          6
     1  C   10.512723  -3.103413  -1.575987   2.258852  -0.064900  -2.274254
     2  C   -3.103413  17.406936  -2.114902  -6.032279   0.789987  -0.824529
     3  C   -1.575987  -2.114902  12.715267   0.312958  -0.051436  -0.773082
     4  C    2.258852  -6.032279   0.312958   9.282718  -0.227087  -0.035661
     5  H   -0.064900   0.789987  -0.051436  -0.227087   0.483881  -0.123332
     6  C   -2.274254  -0.824529  -0.773082  -0.035661  -0.123332   8.719333
     7  C    0.849175  -0.564717  -3.171817   0.818719  -0.001160   0.412643
     8  H   -0.028129   0.034853   0.543453  -0.020253   0.000688  -0.075800
     9  C   -1.193107   1.695344   0.950191  -0.966191   0.044565  -0.171113
    10  H    0.049695  -0.184929   0.028907   0.478686  -0.014465   0.017487
    11  O   -0.200195  -0.238435  -0.064627   0.083785  -0.043725   0.467041
    12  O   -0.219512  -0.118303  -0.037641   0.065466  -0.007059   0.616292
    13  H    0.032252   0.001577  -0.114056   0.002534   0.000008   0.017654
    14  H    0.006752   0.031473   0.002141  -0.065403   0.001615  -0.013794
    15  H   -0.057957   0.008686   0.000463  -0.023542   0.002301   0.060154
               7          8          9         10         11         12
     1  C    0.849175  -0.028129  -1.193107   0.049695  -0.200195  -0.219512
     2  C   -0.564717   0.034853   1.695344  -0.184929  -0.238435  -0.118303
     3  C   -3.171817   0.543453   0.950191   0.028907  -0.064627  -0.037641
     4  C    0.818719  -0.020253  -0.966191   0.478686   0.083785   0.065466
     5  H   -0.001160   0.000688   0.044565  -0.014465  -0.043725  -0.007059
     6  C    0.412643  -0.075800  -0.171113   0.017487   0.467041   0.616292
     7  C    7.877218  -0.113362  -0.673157  -0.004458   0.072515   0.116255
     8  H   -0.113362   0.433304   0.030300   0.000183  -0.005930  -0.008300
     9  C   -0.673157   0.030300   6.454516  -0.048095  -0.039436  -0.023508
    10  H   -0.004458   0.000183  -0.048095   0.474371   0.003359   0.000797
    11  O    0.072515  -0.005930  -0.039436   0.003359   7.993323  -0.130174
    12  O    0.116255  -0.008300  -0.023508   0.000797  -0.130174   8.074638
    13  H    0.434782  -0.009455  -0.037535  -0.000998   0.001180   0.001692
    14  H   -0.043100   0.000788   0.436103  -0.008005  -0.000576  -0.000410
    15  H    0.011049  -0.000510  -0.002773  -0.000165   0.277052  -0.003031
              13         14         15
     1  C    0.032252   0.006752  -0.057957
     2  C    0.001577   0.031473   0.008686
     3  C   -0.114056   0.002141   0.000463
     4  C    0.002534  -0.065403  -0.023542
     5  H    0.000008   0.001615   0.002301
     6  C    0.017654  -0.013794   0.060154
     7  C    0.434782  -0.043100   0.011049
     8  H   -0.009455   0.000788  -0.000510
     9  C   -0.037535   0.436103  -0.002773
    10  H   -0.000998  -0.008005  -0.000165
    11  O    0.001180  -0.000576   0.277052
    12  O    0.001692  -0.000410  -0.003031
    13  H    0.463956  -0.006623   0.000133
    14  H   -0.006623   0.471691  -0.000099
    15  H    0.000133  -0.000099   0.403922
 Mulliken charges:
               1
     1  C    1.008003
     2  C   -0.787351
     3  C   -0.649835
     4  C    0.066698
     5  H    0.210119
     6  C   -0.019039
     7  C   -0.020585
     8  H    0.218170
     9  C   -0.456104
    10  H    0.207629
    11  O   -0.175160
    12  O   -0.327205
    13  H    0.212897
    14  H    0.187446
    15  H    0.324318
 Sum of Mulliken charges =  -0.00000
 Mulliken charges with hydrogens summed into heavy atoms:
               1
     1  C    1.008003
     2  C   -0.577232
     3  C   -0.431664
     4  C    0.274326
     6  C   -0.019039
     7  C    0.192312
     9  C   -0.268658
    11  O    0.149158
    12  O   -0.327205
 Electronic spatial extent (au):  <R**2>=           1157.5067
 Charge=             -0.0000 electrons
 Dipole moment (field-independent basis, Debye):
    X=             -1.5161    Y=             -2.3152    Z=              0.7506  Tot=              2.8674
 Quadrupole moment (field-independent basis, Debye-Ang):
   XX=            -44.5965   YY=            -49.7580   ZZ=            -53.7357
   XY=             -7.9795   XZ=              2.6279   YZ=             -0.7072
 Traceless Quadrupole moment (field-independent basis, Debye-Ang):
   XX=              4.7669   YY=             -0.3946   ZZ=             -4.3723
   XY=             -7.9795   XZ=              2.6279   YZ=             -0.7072
 Octapole moment (field-independent basis, Debye-Ang**2):
  XXX=             15.0600  YYY=             -4.3486  ZZZ=              0.4021  XYY=             -6.9918
  XXY=            -25.6756  XXZ=              9.2435  XZZ=             12.4582  YZZ=             -0.7967
  YYZ=              1.0977  XYZ=             -2.9894
 Hexadecapole moment (field-independent basis, Debye-Ang**3):
 XXXX=           -898.7128 YYYY=           -358.7454 ZZZZ=            -58.6896 XXXY=            -85.9719
 XXXZ=             29.4064 YYYX=            -16.6981 YYYZ=             -0.9462 ZZZX=              1.9146
 ZZZY=             -0.9393 XXYY=           -233.4046 XXZZ=           -190.8180 YYZZ=            -78.5418
 XXYZ=             -9.6840 YYXZ=              4.0618 ZZXY=             -3.1372
 N-N= 4.095877610861D+02 E-N=-1.802699262677D+03  KE= 4.201283557940D+02
 No NMR shielding tensors so no spin-rotation constants.
 Leave Link  601 at Sun Nov 20 17:27:24 2022, MaxMem= 16106127360 cpu:               3.2 elap:               0.1
 (Enter /opt/ap/G16/B01/g16/l9999.exe)
 1\1\GINC-N02\SP\RwB97XD\6-311++G(d,p)\C7H6O2\ROOT\20-Nov-2022\0\\#P wB
 97XD/6-311++G(d,p) scf=maxcycle=512\\_conf024.gjf nmol_natom 1_15\\0,1
 \C\C,1,1.39016191\C,1,1.39194539,2,119.895942\C,2,1.38669027,1,119.880
 75721,3,0.70825972,0\H,2,0.98744251,1,119.71654057,3,-179.90726164,0\C
 ,1,1.48428757,2,119.93615286,4,-179.87772406,0\C,3,1.40101108,1,119.72
 36454,2,-0.26266839,0\H,3,0.9902154,1,119.1886159,2,178.85397616,0\C,4
 ,1.37899003,2,120.45785903,1,-0.48041454,0\H,4,0.9834739,2,120.3044270
 6,1,179.36166981,0\O,6,1.27459751,1,118.00615353,2,-1.25976832,0\O,6,1
 .26362572,1,118.77715367,2,179.20603801,0\H,7,0.98977053,3,119.3786157
 8,1,-178.93545741,0\H,9,0.99498061,4,119.46722635,2,-178.58826714,0\H,
 11,0.89680392,6,118.15823763,1,-150.,0\\Version=ES64L-G16RevB.01\State
 =1-A\HF=-420.7428121\RMSD=7.275e-09\Dipole=0.0943166,-0.2968336,1.0842
 605\Quadrupole=7.5746564,-3.1809133,-4.3937431,2.1623236,-1.6191681,0.
 4459699\PG=C01 [X(C7H6O2)]\\@


 PENOTUS DIED A HUNDRED YEARS OLD WANTING BUT TWO...
 AND HE USED TO SAY BEFORE HE DIED, HAVING SPENT HIS
 WHOLE LIFE IN VAINLY SEARCHING AFTER THE PHILOSOPHER'S
 STONE, THAT IF HE HAD A MORTAL ENEMY HE DID NOT DARE
 TO ENCOUNTER OPENLY, HE WOULD ADVISE HIM ABOVE ALL
 THINGS TO GIVE HIMSELF UP TO THE STUDY AND PRACTICE
 OF ALCHEMY.  --  NICOLAS LEMERY, M.D.
 "A COURSE OF CHYMISTRY", WALTER KETTILBY, LONDON, 1686
 Job cpu time:       0 days  0 hours  7 minutes 41.3 seconds.
 Elapsed time:       0 days  0 hours  0 minutes 14.6 seconds.
 File lengths (MBytes):  RWF=     35 Int=      0 D2E=      0 Chk=      4 Scr=      1
 Normal termination of Gaussian 16 at Sun Nov 20 17:27:24 2022.
