 Entering Gaussian System, Link 0=g16
 Input=_conf040.gjf
 Output=_conf040.log
 Initial command:
 /opt/ap/G16/B01/g16/l1.exe "/tmp2/scr/Gau-6857.inp" -scrdir="/tmp2/scr/"
 Entering Link 1 = /opt/ap/G16/B01/g16/l1.exe PID=      6858.
  
 Copyright (c) 1988-2017, Gaussian, Inc.  All Rights Reserved.
  
 This is part of the Gaussian(R) 16 program.  It is based on
 the Gaussian(R) 09 system (copyright 2009, Gaussian, Inc.),
 the Gaussian(R) 03 system (copyright 2003, Gaussian, Inc.),
 the Gaussian(R) 98 system (copyright 1998, Gaussian, Inc.),
 the Gaussian(R) 94 system (copyright 1995, Gaussian, Inc.),
 the Gaussian 92(TM) system (copyright 1992, Gaussian, Inc.),
 the Gaussian 90(TM) system (copyright 1990, Gaussian, Inc.),
 the Gaussian 88(TM) system (copyright 1988, Gaussian, Inc.),
 the Gaussian 86(TM) system (copyright 1986, Carnegie Mellon
 University), and the Gaussian 82(TM) system (copyright 1983,
 Carnegie Mellon University). Gaussian is a federally registered
 trademark of Gaussian, Inc.
  
 This software contains proprietary and confidential information,
 including trade secrets, belonging to Gaussian, Inc.
  
 This software is provided under written license and may be
 used, copied, transmitted, or stored only in accord with that
 written license.
  
 The following legend is applicable only to US Government
 contracts under FAR:
  
                    RESTRICTED RIGHTS LEGEND
  
 Use, reproduction and disclosure by the US Government is
 subject to restrictions as set forth in subparagraphs (a)
 and (c) of the Commercial Computer Software - Restricted
 Rights clause in FAR 52.227-19.
  
 Gaussian, Inc.
 340 Quinnipiac St., Bldg. 40, Wallingford CT 06492
  
  
 ---------------------------------------------------------------
 Warning -- This program may not be used in any manner that
 competes with the business of Gaussian, Inc. or will provide
 assistance to any competitor of Gaussian, Inc.  The licensee
 of this program is prohibited from giving any competitor of
 Gaussian, Inc. access to this program.  By using this program,
 the user acknowledges that Gaussian, Inc. is engaged in the
 business of creating and licensing software in the field of
 computational chemistry and represents and warrants to the
 licensee that it is not a competitor of Gaussian, Inc. and that
 it will not use this program in any manner prohibited above.
 ---------------------------------------------------------------
  

 Cite this work as:
 Gaussian 16, Revision B.01,
 M. J. Frisch, G. W. Trucks, H. B. Schlegel, G. E. Scuseria, 
 M. A. Robb, J. R. Cheeseman, G. Scalmani, V. Barone, 
 G. A. Petersson, H. Nakatsuji, X. Li, M. Caricato, A. V. Marenich, 
 J. Bloino, B. G. Janesko, R. Gomperts, B. Mennucci, H. P. Hratchian, 
 J. V. Ortiz, A. F. Izmaylov, J. L. Sonnenberg, D. Williams-Young, 
 F. Ding, F. Lipparini, F. Egidi, J. Goings, B. Peng, A. Petrone, 
 T. Henderson, D. Ranasinghe, V. G. Zakrzewski, J. Gao, N. Rega, 
 G. Zheng, W. Liang, M. Hada, M. Ehara, K. Toyota, R. Fukuda, 
 J. Hasegawa, M. Ishida, T. Nakajima, Y. Honda, O. Kitao, H. Nakai, 
 T. Vreven, K. Throssell, J. A. Montgomery, Jr., J. E. Peralta, 
 F. Ogliaro, M. J. Bearpark, J. J. Heyd, E. N. Brothers, K. N. Kudin, 
 V. N. Staroverov, T. A. Keith, R. Kobayashi, J. Normand, 
 K. Raghavachari, A. P. Rendell, J. C. Burant, S. S. Iyengar, 
 J. Tomasi, M. Cossi, J. M. Millam, M. Klene, C. Adamo, R. Cammi, 
 J. W. Ochterski, R. L. Martin, K. Morokuma, O. Farkas, 
 J. B. Foresman, and D. J. Fox, Gaussian, Inc., Wallingford CT, 2016.
 
 ******************************************
 Gaussian 16:  ES64L-G16RevB.01 20-Dec-2017
                21-Nov-2022 
 ******************************************
 %nprocshared=32
 Will use up to   32 processors via shared memory.
 %mem=120GB
 %chk=_conf040.chk
 ----------------------------------------
 #P wB97XD/6-311++G(d,p) scf=maxcycle=512
 ----------------------------------------
 1/38=1,172=1/1;
 2/12=2,17=6,18=5,40=1/2;
 3/5=4,6=6,7=1111,11=2,25=1,30=1,74=-58/1,2,3;
 4//1;
 5/5=2,7=512,38=5/2;
 6/7=2,8=2,9=2,10=2,28=1/1;
 99/5=1,9=1/99;
 Leave Link    1 at Mon Nov 21 14:55:44 2022, MaxMem= 16106127360 cpu:               2.3 elap:               0.1
 (Enter /opt/ap/G16/B01/g16/l101.exe)
 ----------------------------
 _conf040.gjf nmol_natom 1_19
 ----------------------------
 Symbolic Z-matrix:
 Charge =  0 Multiplicity = 1
 C
 C                    1     1.4088 
 C                    1     1.4229   2     117.24957 
 C                    2     1.41888  1     119.07595  3     0.1651   0
 C                    2     1.42228  1     117.46262  3    -179.44444  0
 C                    1     1.4244   2     119.00294  4     179.7374  0
 C                    3     1.3551   1     122.33979  2    -0.36121  0
 O                    3     1.37616  1     115.04371  2    -179.59313  0
 C                    4     1.34578  2     121.3021  1     0.17278  0
 H                    4     0.93023  2     119.33469  1    -179.75965  0
 C                    5     1.34487  2     122.06074  1    -0.32265  0
 H                    5     0.92958  2     118.96449  1     179.64672  0
 C                    6     1.35981  1     121.11124  2     0.11625  0
 H                    6     0.93     1     119.43671  2    -179.8727  0
 H                    7     0.93053  3     120.28038  1    -179.76477  0
 H                    8     0.81992  3     109.48786  1     20.      0
 H                    9     0.93027  4     119.71918  2     179.60144  0
 H                    11    0.92988  5     119.70373  2    -179.69197  0
 H                    13    0.93033  6     120.14525  1     179.85241  0
 
 ITRead=  0  0  0  0  0  0  0  0  0  0  0  0  0  0  0  0  0  0  0
 MicOpt= -1 -1 -1 -1 -1 -1 -1 -1 -1 -1 -1 -1 -1 -1 -1 -1 -1 -1 -1
 NAtoms=     19 NQM=       19 NQMF=       0 NMMI=      0 NMMIF=      0
                NMic=       0 NMicF=      0.
                    Isotopes and Nuclear Properties:
 (Nuclear quadrupole moments (NQMom) in fm**2, nuclear magnetic moments (NMagM)
  in nuclear magnetons)

  Atom         1           2           3           4           5           6           7           8           9          10
 IAtWgt=          12          12          12          12          12          12          12          16          12           1
 AtmWgt=  12.0000000  12.0000000  12.0000000  12.0000000  12.0000000  12.0000000  12.0000000  15.9949146  12.0000000   1.0078250
 NucSpn=           0           0           0           0           0           0           0           0           0           1
 AtZEff=  -0.0000000  -0.0000000  -0.0000000  -0.0000000  -0.0000000  -0.0000000  -0.0000000  -0.0000000  -0.0000000  -0.0000000
 NQMom=    0.0000000   0.0000000   0.0000000   0.0000000   0.0000000   0.0000000   0.0000000   0.0000000   0.0000000   0.0000000
 NMagM=    0.0000000   0.0000000   0.0000000   0.0000000   0.0000000   0.0000000   0.0000000   0.0000000   0.0000000   2.7928460
 AtZNuc=   6.0000000   6.0000000   6.0000000   6.0000000   6.0000000   6.0000000   6.0000000   8.0000000   6.0000000   1.0000000

  Atom        11          12          13          14          15          16          17          18          19
 IAtWgt=          12           1          12           1           1           1           1           1           1
 AtmWgt=  12.0000000   1.0078250  12.0000000   1.0078250   1.0078250   1.0078250   1.0078250   1.0078250   1.0078250
 NucSpn=           0           1           0           1           1           1           1           1           1
 AtZEff=  -0.0000000  -0.0000000  -0.0000000  -0.0000000  -0.0000000  -0.0000000  -0.0000000  -0.0000000  -0.0000000
 NQMom=    0.0000000   0.0000000   0.0000000   0.0000000   0.0000000   0.0000000   0.0000000   0.0000000   0.0000000
 NMagM=    0.0000000   2.7928460   0.0000000   2.7928460   2.7928460   2.7928460   2.7928460   2.7928460   2.7928460
 AtZNuc=   6.0000000   1.0000000   6.0000000   1.0000000   1.0000000   1.0000000   1.0000000   1.0000000   1.0000000
 Leave Link  101 at Mon Nov 21 14:55:44 2022, MaxMem= 16106127360 cpu:               5.5 elap:               0.2
 (Enter /opt/ap/G16/B01/g16/l202.exe)
                          Input orientation:                          
 ---------------------------------------------------------------------
 Center     Atomic      Atomic             Coordinates (Angstroms)
 Number     Number       Type             X           Y           Z
 ---------------------------------------------------------------------
      1          6           0        0.000000    0.000000    0.000000
      2          6           0        0.000000    0.000000    1.408795
      3          6           0        1.264986    0.000000   -0.651498
      4          6           0        1.240062    0.003573    2.098326
      5          6           0       -1.261945   -0.012237    2.064707
      6          6           0       -1.245741   -0.009299   -0.690628
      7          6           0        2.433644    0.007218    0.034427
      8          8           0        1.212032    0.008854   -2.026607
      9          6           0        2.409936    0.010412    1.433147
     10          1           0        1.244276    0.000184    3.028545
     11          6           0       -2.421000   -0.017057    1.382624
     12          1           0       -1.286266   -0.017488    2.993953
     13          6           0       -2.424704   -0.015738   -0.013076
     14          1           0       -1.252769   -0.011151   -1.620598
     15          1           0        3.245045    0.010306   -0.421097
     16          1           0        0.476574    0.277154   -2.270298
     17          1           0        3.210137    0.018260    1.907515
     18          1           0       -3.227740   -0.020753    1.845035
     19          1           0       -3.230632   -0.019714   -0.477804
 ---------------------------------------------------------------------
                    Distance matrix (angstroms):
                    1          2          3          4          5
     1  C    0.000000
     2  C    1.408795   0.000000
     3  C    1.422898   2.417643   0.000000
     4  C    2.437363   1.418880   2.749940   0.000000
     5  C    2.419849   1.422278   3.709892   2.502283   0.000000
     6  C    1.424403   2.441216   2.511049   3.735994   2.755385
     7  C    2.433898   2.794917   1.355104   2.384184   4.216609
     8  O    2.361406   3.642951   1.376157   4.125032   4.781198
     9  C    2.803892   2.410081   2.378396   1.345777   3.725867
    10  H    3.274188   2.042501   3.680101   0.930234   2.685197
    11  C    2.788042   2.421201   4.210040   3.730420   1.344868
    12  H    3.258610   2.041448   4.449551   2.680471   0.929579
    13  C    2.424790   2.810899   3.744548   4.229527   2.381009
    14  H    2.048388   3.278228   2.697845   4.477144   3.685317
    15  H    3.272269   3.725443   1.993445   3.219859   5.147104
    16  H    2.336277   3.720170   1.821790   4.443269   4.679579
    17  H    3.734157   3.248697   3.214420   1.979348   4.474947
    18  H    3.717915   3.257153   5.139815   4.475043   1.978050
    19  H    3.265834   3.741207   4.499015   5.159854   3.215610
                    6          7          8          9         10
     6  C    0.000000
     7  C    3.750180   0.000000
     8  O    2.797466   2.395871   0.000000
     9  C    4.227858   1.398925   3.661267   0.000000
    10  H    4.475771   3.221706   5.055262   1.975895   0.000000
    11  C    2.383205   5.038431   4.982213   4.831278   4.017910
    12  H    3.684813   4.753644   5.607870   4.012331   2.530840
    13  C    1.359806   4.858634   4.157013   5.046383   4.765829
    14  H    0.929998   4.040926   2.498097   4.768777   5.277300
    15  H    4.498910   0.930528   2.590522   2.033624   3.987882
    16  H    2.354523   3.035579   0.819920   4.186233   5.361325
    17  H    5.158096   2.027689   4.412463   0.930273   2.263105
    18  H    3.218391   5.943934   5.890846   5.652788   4.626021
    19  H    1.996295   5.687453   4.704984   5.955556   5.685040
                   11         12         13         14         15
    11  C    0.000000
    12  H    1.970788   0.000000
    13  C    1.395705   3.215317   0.000000
    14  H    3.222443   4.614677   1.989366   0.000000
    15  H    5.946277   5.674162   5.684470   4.655061   0.000000
    16  H    4.671865   5.559384   3.687580   1.869721   3.339937
    17  H    5.655657   4.625934   5.953256   5.689110   2.328887
    18  H    0.929876   2.255958   2.024221   3.988887   6.858080
    19  H    2.028966   3.979153   0.930327   2.284293   6.475995
                   16         17         18         19
    16  H    0.000000
    17  H    4.999351   0.000000
    18  H    5.544967   6.438299   0.000000
    19  H    4.128504   6.868384   2.322841   0.000000
 Stoichiometry    C10H8O
 Framework group  C1[X(C10H8O)]
 Deg. of freedom    51
 Full point group                 C1      NOp   1
 Largest Abelian subgroup         C1      NOp   1
 Largest concise Abelian subgroup C1      NOp   1
                         Standard orientation:                         
 ---------------------------------------------------------------------
 Center     Atomic      Atomic             Coordinates (Angstroms)
 Number     Number       Type             X           Y           Z
 ---------------------------------------------------------------------
      1          6           0       -0.026026    0.425567   -0.003206
      2          6           0       -0.327202   -0.950635    0.005032
      3          6           0        1.348966    0.791521   -0.013806
      4          6           0        0.736778   -1.889338    0.005982
      5          6           0       -1.700247   -1.321606    0.003405
      6          6           0       -1.095357    1.366531   -0.009857
      7          6           0        2.343989   -0.128377   -0.008850
      8          8           0        1.591270    2.146177   -0.012709
      9          6           0        2.021829   -1.489653    0.002651
     10          1           0        0.542009   -2.798951    0.008009
     11          6           0       -2.686695   -0.407503    0.000817
     12          1           0       -1.922696   -2.224176    0.003718
     13          6           0       -2.391928    0.956703   -0.006006
     14          1           0       -0.903423    2.276478   -0.017110
     15          1           0        3.234017    0.143133   -0.012780
     16          1           0        0.926669    2.542705    0.258105
     17          1           0        2.702153   -2.124104    0.008978
     18          1           0       -3.573647   -0.686741    0.004155
     19          1           0       -3.079883    1.582979   -0.008373
 ---------------------------------------------------------------------
 Rotational constants (GHZ):           2.0026492           1.1599435           0.7346707
 Leave Link  202 at Mon Nov 21 14:55:44 2022, MaxMem= 16106127360 cpu:               0.2 elap:               0.0
 (Enter /opt/ap/G16/B01/g16/l301.exe)
 Standard basis: 6-311++G(d,p) (5D, 7F)
 Ernie: Thresh=  0.10000D-02 Tol=  0.10000D-05 Strict=F.
 There are   309 symmetry adapted cartesian basis functions of A   symmetry.
 There are   298 symmetry adapted basis functions of A   symmetry.
   298 basis functions,   468 primitive gaussians,   309 cartesian basis functions
    38 alpha electrons       38 beta electrons
       nuclear repulsion energy       563.4520167263 Hartrees.
 IExCor= 4639 DFT=T Ex+Corr=wB97XD ExCW=0 ScaHFX=  1.000000
 ScaDFX=  1.000000  1.000000  1.000000  1.000000 ScalE2=  1.000000  1.000000
 IRadAn=      5 IRanWt=     -1 IRanGd=            0 ICorTp=0 IEmpDi=121
 HFx  wShort=  0.000000 wLong=  0.200000 cFull=  0.222036 cShort=  0.000000 cLong=  0.777964
 DFx  wShort=  0.000000 wLong=  0.200000 cFull=  0.000000 cShort=  0.000000 cLong=  1.000000
 NAtoms=   19 NActive=   19 NUniq=   19 SFac= 1.00D+00 NAtFMM=   60 NAOKFM=F Big=F
 Integral buffers will be    131072 words long.
 Raffenetti 2 integral format.
 Two-electron integral symmetry is turned on.
 R6Disp:  Grimme-D2 Dispersion energy=       -0.0102161293 Hartrees.
 Nuclear repulsion after empirical dispersion term =      563.4418005970 Hartrees.
 Leave Link  301 at Mon Nov 21 14:55:44 2022, MaxMem= 16106127360 cpu:               1.6 elap:               0.1
 (Enter /opt/ap/G16/B01/g16/l302.exe)
 NPDir=0 NMtPBC=     1 NCelOv=     1 NCel=       1 NClECP=     1 NCelD=      1
         NCelK=      1 NCelE2=     1 NClLst=     1 CellRange=     0.0.
 One-electron integrals computed using PRISM.
 One-electron integral symmetry used in STVInt
 NBasis=   298 RedAO= T EigKep=  1.02D-06  NBF=   298
 NBsUse=   296 1.00D-06 EigRej=  6.35D-07 NBFU=   296
 Precomputing XC quadrature grid using
 IXCGrd= 4 IRadAn=           5 IRanWt=          -1 IRanGd=           0 AccXCQ= 0.00D+00.
 Generated NRdTot=       0 NPtTot=           0 NUsed=           0 NTot=          32
 NSgBfM=   309   309   309   309   309 MxSgAt=    19 MxSgA2=    19.
 Leave Link  302 at Mon Nov 21 14:55:44 2022, MaxMem= 16106127360 cpu:               6.6 elap:               0.2
 (Enter /opt/ap/G16/B01/g16/l303.exe)
 DipDrv:  MaxL=1.
 Leave Link  303 at Mon Nov 21 14:55:45 2022, MaxMem= 16106127360 cpu:               1.3 elap:               0.0
 (Enter /opt/ap/G16/B01/g16/l401.exe)
 ExpMin= 3.60D-02 ExpMax= 8.59D+03 ExpMxC= 1.30D+03 IAcc=3 IRadAn=         5 AccDes= 0.00D+00
 Harris functional with IExCor= 4639 and IRadAn=       5 diagonalized for initial guess.
 HarFok:  IExCor= 4639 AccDes= 0.00D+00 IRadAn=         5 IDoV= 1 UseB2=F ITyADJ=14
 ICtDFT=  3500011 ScaDFX=  1.000000  1.000000  1.000000  1.000000
 FoFCou: FMM=F IPFlag=           0 FMFlag=      100000 FMFlg1=           0
         NFxFlg=           0 DoJE=T BraDBF=F KetDBF=T FulRan=T
         wScrn=  0.000000 ICntrl=       500 IOpCl=  0 I1Cent=   200000004 NGrid=           0
         NMat0=    1 NMatS0=      1 NMatT0=    0 NMatD0=    1 NMtDS0=    0 NMtDT0=    0
 Petite list used in FoFCou.
 Harris En= -440.613649541711    
 JPrj=0 DoOrth=F DoCkMO=F.
 Leave Link  401 at Mon Nov 21 14:55:45 2022, MaxMem= 16106127360 cpu:              16.5 elap:               0.5
 (Enter /opt/ap/G16/B01/g16/l502.exe)
 Integral symmetry usage will be decided dynamically.
 Closed shell SCF:
 Using DIIS extrapolation, IDIIS=  1040.
 NGot= 16106127360 LenX= 16105923535 LenY= 16105827613
 Requested convergence on RMS density matrix=1.00D-08 within 512 cycles.
 Requested convergence on MAX density matrix=1.00D-06.
 Requested convergence on             energy=1.00D-06.
 No special actions if energy rises.
 Fock matrices will be formed incrementally for  20 cycles.

 Cycle   1  Pass 1  IDiag  1:
 FoFJK:  IHMeth= 1 ICntrl=       0 DoSepK=T KAlg= 0 I1Cent=           0 FoldK=F
 IRaf=         1 NMat=       1 IRICut=       1 DoRegI=T DoRafI=F ISym2E= 0 IDoP0=0 IntGTp=1.
 FoFCou: FMM=F IPFlag=           0 FMFlag=      100000 FMFlg1=           0
         NFxFlg=           0 DoJE=T BraDBF=F KetDBF=F FulRan=T
         wScrn=  0.000000 ICntrl=       500 IOpCl=  0 I1Cent=           0 NGrid=           0
         NMat0=    1 NMatS0=      1 NMatT0=    0 NMatD0=    1 NMtDS0=    0 NMtDT0=    0
 Symmetry not used in FoFCou.
 E= -460.745977088271    
 DIIS: error= 5.16D-02 at cycle   1 NSaved=   1.
 NSaved= 1 IEnMin= 1 EnMin= -460.745977088271     IErMin= 1 ErrMin= 5.16D-02
 ErrMax= 5.16D-02  0.00D+00 EMaxC= 1.00D-01 BMatC= 9.61D-01 BMatP= 9.61D-01
 IDIUse=3 WtCom= 4.84D-01 WtEn= 5.16D-01
 Coeff-Com:  0.100D+01
 Coeff-En:   0.100D+01
 Coeff:      0.100D+01
 Gap=     0.334 Goal=   None    Shift=    0.000
 GapD=    0.334 DampG=1.000 DampE=0.500 DampFc=0.5000 IDamp=-1.
 Damping current iteration by 5.00D-01
 RMSDP=5.14D-02 MaxDP=5.19D+00              OVMax= 1.57D-01

 Cycle   2  Pass 1  IDiag  1:
 RMSU=  1.21D-02    CP:  8.23D-01
 E= -460.815224543749     Delta-E=       -0.069247455478 Rises=F Damp=T
 DIIS: error= 2.61D-02 at cycle   2 NSaved=   2.
 NSaved= 2 IEnMin= 2 EnMin= -460.815224543749     IErMin= 2 ErrMin= 2.61D-02
 ErrMax= 2.61D-02  0.00D+00 EMaxC= 1.00D-01 BMatC= 2.08D-01 BMatP= 9.61D-01
 IDIUse=3 WtCom= 7.39D-01 WtEn= 2.61D-01
 Coeff-Com: -0.694D+00 0.169D+01
 Coeff-En:   0.000D+00 0.100D+01
 Coeff:     -0.513D+00 0.151D+01
 Gap=     0.330 Goal=   None    Shift=    0.000
 RMSDP=2.81D-02 MaxDP=2.90D+00 DE=-6.92D-02 OVMax= 1.56D-01

 Cycle   3  Pass 1  IDiag  1:
 RMSU=  6.10D-03    CP:  6.10D-01  1.19D+00
 E= -460.857752008609     Delta-E=       -0.042527464859 Rises=F Damp=F
 DIIS: error= 1.32D-02 at cycle   3 NSaved=   3.
 NSaved= 3 IEnMin= 3 EnMin= -460.857752008609     IErMin= 3 ErrMin= 1.32D-02
 ErrMax= 1.32D-02  0.00D+00 EMaxC= 1.00D-01 BMatC= 3.37D-02 BMatP= 2.08D-01
 IDIUse=3 WtCom= 8.68D-01 WtEn= 1.32D-01
 Coeff-Com: -0.367D+00 0.780D+00 0.587D+00
 Coeff-En:   0.000D+00 0.000D+00 0.100D+01
 Coeff:     -0.319D+00 0.678D+00 0.641D+00
 Gap=     0.313 Goal=   None    Shift=    0.000
 RMSDP=4.82D-03 MaxDP=3.78D-01 DE=-4.25D-02 OVMax= 7.27D-02

 Cycle   4  Pass 1  IDiag  1:
 RMSU=  2.00D-03    CP:  5.89D-01  1.38D+00  5.74D-01
 E= -460.887379597211     Delta-E=       -0.029627588602 Rises=F Damp=F
 DIIS: error= 2.12D-03 at cycle   4 NSaved=   4.
 NSaved= 4 IEnMin= 4 EnMin= -460.887379597211     IErMin= 4 ErrMin= 2.12D-03
 ErrMax= 2.12D-03  0.00D+00 EMaxC= 1.00D-01 BMatC= 1.42D-03 BMatP= 3.37D-02
 IDIUse=3 WtCom= 9.79D-01 WtEn= 2.12D-02
 Coeff-Com: -0.122D+00 0.261D+00 0.296D+00 0.566D+00
 Coeff-En:   0.000D+00 0.000D+00 0.000D+00 0.100D+01
 Coeff:     -0.120D+00 0.255D+00 0.290D+00 0.575D+00
 Gap=     0.304 Goal=   None    Shift=    0.000
 RMSDP=5.96D-04 MaxDP=2.40D-02 DE=-2.96D-02 OVMax= 1.06D-02

 Cycle   5  Pass 1  IDiag  1:
 RMSU=  4.20D-04    CP:  5.89D-01  1.37D+00  6.31D-01  9.01D-01
 E= -460.888672605301     Delta-E=       -0.001293008090 Rises=F Damp=F
 DIIS: error= 3.51D-04 at cycle   5 NSaved=   5.
 NSaved= 5 IEnMin= 5 EnMin= -460.888672605301     IErMin= 5 ErrMin= 3.51D-04
 ErrMax= 3.51D-04  0.00D+00 EMaxC= 1.00D-01 BMatC= 1.76D-05 BMatP= 1.42D-03
 IDIUse=3 WtCom= 9.96D-01 WtEn= 3.51D-03
 Coeff-Com:  0.128D-01-0.270D-01 0.345D-02 0.128D+00 0.883D+00
 Coeff-En:   0.000D+00 0.000D+00 0.000D+00 0.000D+00 0.100D+01
 Coeff:      0.128D-01-0.269D-01 0.344D-02 0.128D+00 0.883D+00
 Gap=     0.305 Goal=   None    Shift=    0.000
 RMSDP=2.55D-04 MaxDP=1.52D-02 DE=-1.29D-03 OVMax= 3.39D-03

 Cycle   6  Pass 1  IDiag  1:
 RMSU=  2.13D-04    CP:  5.88D-01  1.38D+00  6.35D-01  9.10D-01  9.70D-01
 E= -460.888699591750     Delta-E=       -0.000026986449 Rises=F Damp=F
 DIIS: error= 2.05D-04 at cycle   6 NSaved=   6.
 NSaved= 6 IEnMin= 6 EnMin= -460.888699591750     IErMin= 6 ErrMin= 2.05D-04
 ErrMax= 2.05D-04  0.00D+00 EMaxC= 1.00D-01 BMatC= 4.47D-06 BMatP= 1.76D-05
 IDIUse=3 WtCom= 9.98D-01 WtEn= 2.05D-03
 Coeff-Com:  0.175D-01-0.373D-01-0.263D-01-0.525D-02 0.368D+00 0.684D+00
 Coeff-En:   0.000D+00 0.000D+00 0.000D+00 0.000D+00 0.000D+00 0.100D+01
 Coeff:      0.174D-01-0.372D-01-0.262D-01-0.524D-02 0.367D+00 0.684D+00
 Gap=     0.305 Goal=   None    Shift=    0.000
 RMSDP=1.53D-04 MaxDP=1.06D-02 DE=-2.70D-05 OVMax= 1.07D-03

 Cycle   7  Pass 1  IDiag  1:
 RMSU=  5.58D-05    CP:  5.88D-01  1.38D+00  6.34D-01  9.40D-01  1.10D+00
                    CP:  9.16D-01
 E= -460.888705932761     Delta-E=       -0.000006341011 Rises=F Damp=F
 DIIS: error= 7.42D-05 at cycle   7 NSaved=   7.
 NSaved= 7 IEnMin= 7 EnMin= -460.888705932761     IErMin= 7 ErrMin= 7.42D-05
 ErrMax= 7.42D-05  0.00D+00 EMaxC= 1.00D-01 BMatC= 3.33D-07 BMatP= 4.47D-06
 IDIUse=1 WtCom= 1.00D+00 WtEn= 0.00D+00
 Coeff-Com:  0.120D-02-0.254D-02-0.297D-02-0.149D-01-0.593D-01 0.932D-01
 Coeff-Com:  0.985D+00
 Coeff:      0.120D-02-0.254D-02-0.297D-02-0.149D-01-0.593D-01 0.932D-01
 Coeff:      0.985D+00
 Gap=     0.305 Goal=   None    Shift=    0.000
 RMSDP=3.28D-05 MaxDP=2.29D-03 DE=-6.34D-06 OVMax= 8.02D-04

 Cycle   8  Pass 1  IDiag  1:
 RMSU=  2.01D-05    CP:  5.87D-01  1.38D+00  6.35D-01  9.40D-01  1.10D+00
                    CP:  9.64D-01  1.15D+00
 E= -460.888706983607     Delta-E=       -0.000001050845 Rises=F Damp=F
 DIIS: error= 2.36D-05 at cycle   8 NSaved=   8.
 NSaved= 8 IEnMin= 8 EnMin= -460.888706983607     IErMin= 8 ErrMin= 2.36D-05
 ErrMax= 2.36D-05  0.00D+00 EMaxC= 1.00D-01 BMatC= 1.04D-07 BMatP= 3.33D-07
 IDIUse=1 WtCom= 1.00D+00 WtEn= 0.00D+00
 Coeff-Com: -0.223D-02 0.480D-02 0.342D-02-0.420D-02-0.843D-01-0.772D-01
 Coeff-Com:  0.422D+00 0.737D+00
 Coeff:     -0.223D-02 0.480D-02 0.342D-02-0.420D-02-0.843D-01-0.772D-01
 Coeff:      0.422D+00 0.737D+00
 Gap=     0.305 Goal=   None    Shift=    0.000
 RMSDP=1.47D-05 MaxDP=9.87D-04 DE=-1.05D-06 OVMax= 2.61D-04

 Cycle   9  Pass 1  IDiag  1:
 RMSU=  6.43D-06    CP:  5.88D-01  1.38D+00  6.36D-01  9.38D-01  1.11D+00
                    CP:  1.00D+00  1.23D+00  1.13D+00
 E= -460.888707195360     Delta-E=       -0.000000211753 Rises=F Damp=F
 DIIS: error= 1.16D-05 at cycle   9 NSaved=   9.
 NSaved= 9 IEnMin= 9 EnMin= -460.888707195360     IErMin= 9 ErrMin= 1.16D-05
 ErrMax= 1.16D-05  0.00D+00 EMaxC= 1.00D-01 BMatC= 7.37D-09 BMatP= 1.04D-07
 IDIUse=1 WtCom= 1.00D+00 WtEn= 0.00D+00
 Coeff-Com: -0.683D-03 0.146D-02 0.135D-02 0.151D-02-0.116D-01-0.355D-01
 Coeff-Com: -0.527D-01 0.116D+00 0.980D+00
 Coeff:     -0.683D-03 0.146D-02 0.135D-02 0.151D-02-0.116D-01-0.355D-01
 Coeff:     -0.527D-01 0.116D+00 0.980D+00
 Gap=     0.305 Goal=   None    Shift=    0.000
 RMSDP=5.83D-06 MaxDP=5.54D-04 DE=-2.12D-07 OVMax= 1.50D-04

 Cycle  10  Pass 1  IDiag  1:
 RMSU=  2.78D-06    CP:  5.88D-01  1.38D+00  6.36D-01  9.36D-01  1.11D+00
                    CP:  1.01D+00  1.24D+00  1.29D+00  1.22D+00
 E= -460.888707228719     Delta-E=       -0.000000033359 Rises=F Damp=F
 DIIS: error= 4.81D-06 at cycle  10 NSaved=  10.
 NSaved=10 IEnMin=10 EnMin= -460.888707228719     IErMin=10 ErrMin= 4.81D-06
 ErrMax= 4.81D-06  0.00D+00 EMaxC= 1.00D-01 BMatC= 1.15D-09 BMatP= 7.37D-09
 IDIUse=1 WtCom= 1.00D+00 WtEn= 0.00D+00
 Coeff-Com:  0.107D-03-0.233D-03-0.573D-04 0.976D-03 0.736D-02 0.681D-03
 Coeff-Com: -0.547D-01-0.788D-01 0.225D+00 0.899D+00
 Coeff:      0.107D-03-0.233D-03-0.573D-04 0.976D-03 0.736D-02 0.681D-03
 Coeff:     -0.547D-01-0.788D-01 0.225D+00 0.899D+00
 Gap=     0.305 Goal=   None    Shift=    0.000
 RMSDP=2.14D-06 MaxDP=8.27D-05 DE=-3.34D-08 OVMax= 4.69D-05

 Cycle  11  Pass 1  IDiag  1:
 RMSU=  7.74D-07    CP:  5.88D-01  1.38D+00  6.36D-01  9.36D-01  1.10D+00
                    CP:  1.01D+00  1.24D+00  1.33D+00  1.33D+00  1.15D+00
 E= -460.888707232788     Delta-E=       -0.000000004070 Rises=F Damp=F
 DIIS: error= 1.45D-06 at cycle  11 NSaved=  11.
 NSaved=11 IEnMin=11 EnMin= -460.888707232788     IErMin=11 ErrMin= 1.45D-06
 ErrMax= 1.45D-06  0.00D+00 EMaxC= 1.00D-01 BMatC= 2.53D-10 BMatP= 1.15D-09
 IDIUse=1 WtCom= 1.00D+00 WtEn= 0.00D+00
 Coeff-Com:  0.143D-03-0.308D-03-0.231D-03 0.117D-03 0.424D-02 0.508D-02
 Coeff-Com: -0.891D-02-0.479D-01-0.799D-01 0.319D+00 0.808D+00
 Coeff:      0.143D-03-0.308D-03-0.231D-03 0.117D-03 0.424D-02 0.508D-02
 Coeff:     -0.891D-02-0.479D-01-0.799D-01 0.319D+00 0.808D+00
 Gap=     0.305 Goal=   None    Shift=    0.000
 RMSDP=7.65D-07 MaxDP=3.34D-05 DE=-4.07D-09 OVMax= 1.75D-05

 Cycle  12  Pass 1  IDiag  1:
 RMSU=  3.19D-07    CP:  5.88D-01  1.38D+00  6.36D-01  9.36D-01  1.10D+00
                    CP:  1.01D+00  1.24D+00  1.34D+00  1.36D+00  1.18D+00
                    CP:  1.09D+00
 E= -460.888707233492     Delta-E=       -0.000000000703 Rises=F Damp=F
 DIIS: error= 6.45D-07 at cycle  12 NSaved=  12.
 NSaved=12 IEnMin=12 EnMin= -460.888707233492     IErMin=12 ErrMin= 6.45D-07
 ErrMax= 6.45D-07  0.00D+00 EMaxC= 1.00D-01 BMatC= 1.63D-11 BMatP= 2.53D-10
 IDIUse=1 WtCom= 1.00D+00 WtEn= 0.00D+00
 Coeff-Com: -0.754D-05 0.170D-04-0.562D-05-0.126D-03-0.796D-03-0.132D-03
 Coeff-Com:  0.796D-02 0.105D-01-0.386D-01-0.118D+00-0.269D-01 0.117D+01
 Coeff:     -0.754D-05 0.170D-04-0.562D-05-0.126D-03-0.796D-03-0.132D-03
 Coeff:      0.796D-02 0.105D-01-0.386D-01-0.118D+00-0.269D-01 0.117D+01
 Gap=     0.305 Goal=   None    Shift=    0.000
 RMSDP=4.29D-07 MaxDP=2.08D-05 DE=-7.03D-10 OVMax= 8.73D-06

 Cycle  13  Pass 1  IDiag  1:
 RMSU=  1.51D-07    CP:  5.88D-01  1.38D+00  6.36D-01  9.36D-01  1.10D+00
                    CP:  1.01D+00  1.24D+00  1.34D+00  1.36D+00  1.19D+00
                    CP:  1.27D+00  1.29D+00
 E= -460.888707233595     Delta-E=       -0.000000000103 Rises=F Damp=F
 DIIS: error= 1.23D-07 at cycle  13 NSaved=  13.
 NSaved=13 IEnMin=13 EnMin= -460.888707233595     IErMin=13 ErrMin= 1.23D-07
 ErrMax= 1.23D-07  0.00D+00 EMaxC= 1.00D-01 BMatC= 3.18D-12 BMatP= 1.63D-11
 IDIUse=1 WtCom= 1.00D+00 WtEn= 0.00D+00
 Coeff-Com: -0.121D-04 0.263D-04 0.137D-04-0.510D-04-0.531D-03-0.427D-03
 Coeff-Com:  0.299D-02 0.753D-02-0.386D-02-0.569D-01-0.736D-01 0.347D+00
 Coeff-Com:  0.778D+00
 Coeff:     -0.121D-04 0.263D-04 0.137D-04-0.510D-04-0.531D-03-0.427D-03
 Coeff:      0.299D-02 0.753D-02-0.386D-02-0.569D-01-0.736D-01 0.347D+00
 Coeff:      0.778D+00
 Gap=     0.305 Goal=   None    Shift=    0.000
 RMSDP=1.49D-07 MaxDP=6.83D-06 DE=-1.03D-10 OVMax= 1.86D-06

 Cycle  14  Pass 1  IDiag  1:
 RMSU=  3.71D-08    CP:  5.88D-01  1.38D+00  6.36D-01  9.36D-01  1.10D+00
                    CP:  1.01D+00  1.24D+00  1.34D+00  1.36D+00  1.18D+00
                    CP:  1.28D+00  1.35D+00  1.24D+00
 E= -460.888707233606     Delta-E=       -0.000000000011 Rises=F Damp=F
 DIIS: error= 8.04D-08 at cycle  14 NSaved=  14.
 NSaved=14 IEnMin=14 EnMin= -460.888707233606     IErMin=14 ErrMin= 8.04D-08
 ErrMax= 8.04D-08  0.00D+00 EMaxC= 1.00D-01 BMatC= 5.10D-13 BMatP= 3.18D-12
 IDIUse=1 WtCom= 1.00D+00 WtEn= 0.00D+00
 Coeff-Com: -0.186D-05 0.385D-05 0.415D-05 0.845D-05 0.326D-04-0.922D-04
 Coeff-Com: -0.112D-02-0.366D-04 0.630D-02 0.961D-02-0.126D-01-0.166D+00
 Coeff-Com:  0.166D+00 0.998D+00
 Coeff:     -0.186D-05 0.385D-05 0.415D-05 0.845D-05 0.326D-04-0.922D-04
 Coeff:     -0.112D-02-0.366D-04 0.630D-02 0.961D-02-0.126D-01-0.166D+00
 Coeff:      0.166D+00 0.998D+00
 Gap=     0.305 Goal=   None    Shift=    0.000
 RMSDP=1.07D-07 MaxDP=5.13D-06 DE=-1.11D-11 OVMax= 1.49D-06

 Cycle  15  Pass 1  IDiag  1:
 RMSU=  3.29D-08    CP:  5.88D-01  1.38D+00  6.36D-01  9.36D-01  1.11D+00
                    CP:  1.01D+00  1.24D+00  1.33D+00  1.35D+00  1.18D+00
                    CP:  1.29D+00  1.38D+00  1.51D+00  1.44D+00
 E= -460.888707233602     Delta-E=        0.000000000005 Rises=F Damp=F
 DIIS: error= 2.40D-08 at cycle  15 NSaved=  15.
 NSaved=15 IEnMin=14 EnMin= -460.888707233606     IErMin=15 ErrMin= 2.40D-08
 ErrMax= 2.40D-08  0.00D+00 EMaxC= 1.00D-01 BMatC= 6.59D-14 BMatP= 5.10D-13
 IDIUse=1 WtCom= 1.00D+00 WtEn= 0.00D+00
 Coeff-Com:  0.576D-06-0.130D-05-0.369D-06 0.571D-05 0.538D-04 0.289D-04
 Coeff-Com: -0.413D-03-0.614D-03 0.759D-03 0.618D-02 0.856D-02-0.517D-01
 Coeff-Com: -0.991D-01 0.105D+00 0.103D+01
 Coeff:      0.576D-06-0.130D-05-0.369D-06 0.571D-05 0.538D-04 0.289D-04
 Coeff:     -0.413D-03-0.614D-03 0.759D-03 0.618D-02 0.856D-02-0.517D-01
 Coeff:     -0.991D-01 0.105D+00 0.103D+01
 Gap=     0.305 Goal=   None    Shift=    0.000
 RMSDP=2.95D-08 MaxDP=1.16D-06 DE= 4.55D-12 OVMax= 4.65D-07

 Cycle  16  Pass 1  IDiag  1:
 RMSU=  5.81D-09    CP:  5.88D-01  1.38D+00  6.36D-01  9.36D-01  1.11D+00
                    CP:  1.01D+00  1.24D+00  1.33D+00  1.35D+00  1.18D+00
                    CP:  1.29D+00  1.39D+00  1.59D+00  1.67D+00  1.26D+00
 E= -460.888707233598     Delta-E=        0.000000000004 Rises=F Damp=F
 DIIS: error= 1.57D-08 at cycle  16 NSaved=  16.
 NSaved=16 IEnMin=14 EnMin= -460.888707233606     IErMin=16 ErrMin= 1.57D-08
 ErrMax= 1.57D-08  0.00D+00 EMaxC= 1.00D-01 BMatC= 1.79D-14 BMatP= 6.59D-14
 IDIUse=1 WtCom= 1.00D+00 WtEn= 0.00D+00
 Coeff-Com:  0.523D-06-0.113D-05-0.861D-06 0.955D-06 0.195D-04 0.287D-04
 Coeff-Com: -0.341D-04-0.275D-03-0.545D-03 0.132D-02 0.664D-02-0.340D-03
 Coeff-Com: -0.730D-01-0.822D-01 0.448D+00 0.700D+00
 Coeff:      0.523D-06-0.113D-05-0.861D-06 0.955D-06 0.195D-04 0.287D-04
 Coeff:     -0.341D-04-0.275D-03-0.545D-03 0.132D-02 0.664D-02-0.340D-03
 Coeff:     -0.730D-01-0.822D-01 0.448D+00 0.700D+00
 Gap=     0.305 Goal=   None    Shift=    0.000
 RMSDP=5.05D-09 MaxDP=3.39D-07 DE= 4.32D-12 OVMax= 1.50D-07

 SCF Done:  E(RwB97XD) =  -460.888707234     A.U. after   16 cycles
            NFock= 16  Conv=0.50D-08     -V/T= 1.9983
 KE= 4.616682519736D+02 PE=-2.201203353145D+03 EE= 7.152045933408D+02
 Leave Link  502 at Mon Nov 21 14:56:08 2022, MaxMem= 16106127360 cpu:             720.2 elap:              22.6
 (Enter /opt/ap/G16/B01/g16/l601.exe)
 Copying SCF densities to generalized density rwf, IOpCl= 0 IROHF=0.

 **********************************************************************

            Population analysis using the SCF Density.

 **********************************************************************

 Orbital symmetries:
       Occupied  (A) (A) (A) (A) (A) (A) (A) (A) (A) (A) (A) (A)
                 (A) (A) (A) (A) (A) (A) (A) (A) (A) (A) (A) (A)
                 (A) (A) (A) (A) (A) (A) (A) (A) (A) (A) (A) (A)
                 (A) (A)
       Virtual   (A) (A) (A) (A) (A) (A) (A) (A) (A) (A) (A) (A)
                 (A) (A) (A) (A) (A) (A) (A) (A) (A) (A) (A) (A)
                 (A) (A) (A) (A) (A) (A) (A) (A) (A) (A) (A) (A)
                 (A) (A) (A) (A) (A) (A) (A) (A) (A) (A) (A) (A)
                 (A) (A) (A) (A) (A) (A) (A) (A) (A) (A) (A) (A)
                 (A) (A) (A) (A) (A) (A) (A) (A) (A) (A) (A) (A)
                 (A) (A) (A) (A) (A) (A) (A) (A) (A) (A) (A) (A)
                 (A) (A) (A) (A) (A) (A) (A) (A) (A) (A) (A) (A)
                 (A) (A) (A) (A) (A) (A) (A) (A) (A) (A) (A) (A)
                 (A) (A) (A) (A) (A) (A) (A) (A) (A) (A) (A) (A)
                 (A) (A) (A) (A) (A) (A) (A) (A) (A) (A) (A) (A)
                 (A) (A) (A) (A) (A) (A) (A) (A) (A) (A) (A) (A)
                 (A) (A) (A) (A) (A) (A) (A) (A) (A) (A) (A) (A)
                 (A) (A) (A) (A) (A) (A) (A) (A) (A) (A) (A) (A)
                 (A) (A) (A) (A) (A) (A) (A) (A) (A) (A) (A) (A)
                 (A) (A) (A) (A) (A) (A) (A) (A) (A) (A) (A) (A)
                 (A) (A) (A) (A) (A) (A) (A) (A) (A) (A) (A) (A)
                 (A) (A) (A) (A) (A) (A) (A) (A) (A) (A) (A) (A)
                 (A) (A) (A) (A) (A) (A) (A) (A) (A) (A) (A) (A)
                 (A) (A) (A) (A) (A) (A) (A) (A) (A) (A) (A) (A)
                 (A) (A) (A) (A) (A) (A) (A) (A) (A) (A) (A) (A)
                 (A) (A) (A) (A) (A) (A)
 The electronic state is 1-A.
 Alpha  occ. eigenvalues --  -19.26484 -10.35250 -10.30045 -10.29975 -10.28318
 Alpha  occ. eigenvalues --  -10.27649 -10.27460 -10.27193 -10.27183 -10.26650
 Alpha  occ. eigenvalues --  -10.26499  -1.20002  -0.99075  -0.94541  -0.88829
 Alpha  occ. eigenvalues --   -0.86524  -0.84720  -0.75649  -0.74016  -0.72412
 Alpha  occ. eigenvalues --   -0.67860  -0.64756  -0.61644  -0.60440  -0.56059
 Alpha  occ. eigenvalues --   -0.55014  -0.52946  -0.52005  -0.51685  -0.48779
 Alpha  occ. eigenvalues --   -0.47972  -0.46177  -0.43894  -0.42715  -0.41840
 Alpha  occ. eigenvalues --   -0.35826  -0.32950  -0.28855
 Alpha virt. eigenvalues --    0.01620   0.03872   0.04250   0.04650   0.05019
 Alpha virt. eigenvalues --    0.06292   0.06560   0.08449   0.08773   0.09269
 Alpha virt. eigenvalues --    0.10524   0.11372   0.12189   0.12848   0.13859
 Alpha virt. eigenvalues --    0.14889   0.14974   0.15471   0.15846   0.16171
 Alpha virt. eigenvalues --    0.16640   0.17158   0.17654   0.17849   0.18275
 Alpha virt. eigenvalues --    0.18903   0.19118   0.19180   0.19975   0.20559
 Alpha virt. eigenvalues --    0.21673   0.21792   0.22284   0.22526   0.22967
 Alpha virt. eigenvalues --    0.24811   0.25787   0.25854   0.26117   0.26930
 Alpha virt. eigenvalues --    0.27144   0.28739   0.29417   0.29661   0.29978
 Alpha virt. eigenvalues --    0.30901   0.31279   0.31740   0.32392   0.32726
 Alpha virt. eigenvalues --    0.33964   0.34690   0.35076   0.35479   0.35628
 Alpha virt. eigenvalues --    0.36100   0.37547   0.38186   0.38678   0.39583
 Alpha virt. eigenvalues --    0.40618   0.41246   0.41558   0.42878   0.43119
 Alpha virt. eigenvalues --    0.43923   0.44716   0.46651   0.47366   0.47949
 Alpha virt. eigenvalues --    0.50643   0.56925   0.58059   0.59705   0.61036
 Alpha virt. eigenvalues --    0.61691   0.62143   0.65161   0.65471   0.65896
 Alpha virt. eigenvalues --    0.66638   0.67376   0.67935   0.68403   0.70024
 Alpha virt. eigenvalues --    0.70422   0.71163   0.71561   0.71902   0.72259
 Alpha virt. eigenvalues --    0.73735   0.75615   0.75998   0.78233   0.81869
 Alpha virt. eigenvalues --    0.82059   0.83131   0.85611   0.86349   0.87575
 Alpha virt. eigenvalues --    0.89444   0.90677   0.91215   0.92662   0.93318
 Alpha virt. eigenvalues --    0.95886   0.96056   0.97306   0.99543   1.00551
 Alpha virt. eigenvalues --    1.01806   1.02293   1.04248   1.04533   1.05811
 Alpha virt. eigenvalues --    1.06283   1.06788   1.09859   1.11894   1.13852
 Alpha virt. eigenvalues --    1.14227   1.14315   1.18753   1.19437   1.20067
 Alpha virt. eigenvalues --    1.20822   1.22676   1.23446   1.24143   1.25468
 Alpha virt. eigenvalues --    1.27105   1.32363   1.34407   1.43753   1.45917
 Alpha virt. eigenvalues --    1.48234   1.56350   1.56602   1.58312   1.59669
 Alpha virt. eigenvalues --    1.60833   1.61563   1.62916   1.64026   1.68518
 Alpha virt. eigenvalues --    1.69706   1.70777   1.70878   1.73671   1.75980
 Alpha virt. eigenvalues --    1.76969   1.78438   1.80540   1.81976   1.85222
 Alpha virt. eigenvalues --    1.89451   1.90027   1.91770   1.92980   1.93357
 Alpha virt. eigenvalues --    1.96482   1.97290   1.99667   2.00283   2.03155
 Alpha virt. eigenvalues --    2.04011   2.05043   2.07512   2.08417   2.08828
 Alpha virt. eigenvalues --    2.09795   2.11395   2.13145   2.15474   2.18796
 Alpha virt. eigenvalues --    2.24742   2.27048   2.27833   2.31903   2.34602
 Alpha virt. eigenvalues --    2.37158   2.39295   2.41188   2.46957   2.50924
 Alpha virt. eigenvalues --    2.52206   2.53108   2.54909   2.55970   2.64089
 Alpha virt. eigenvalues --    2.65635   2.67694   2.71702   2.75330   2.76282
 Alpha virt. eigenvalues --    2.80012   2.81867   2.84153   2.87755   2.88356
 Alpha virt. eigenvalues --    2.92794   2.93513   2.94861   2.99388   3.01050
 Alpha virt. eigenvalues --    3.02324   3.02805   3.04474   3.06498   3.07495
 Alpha virt. eigenvalues --    3.08399   3.12136   3.17658   3.18440   3.19863
 Alpha virt. eigenvalues --    3.21794   3.23232   3.26248   3.29403   3.35120
 Alpha virt. eigenvalues --    3.37595   3.39675   3.48415   3.49897   3.53343
 Alpha virt. eigenvalues --    3.55584   3.63618   3.74052   3.77942   3.79175
 Alpha virt. eigenvalues --    3.83876   3.88545   3.90281   3.99295   4.20684
 Alpha virt. eigenvalues --    4.28425   4.43309   4.44713   4.45981   4.52324
 Alpha virt. eigenvalues --    4.57710   4.62250   4.94269   4.97331   5.14605
 Alpha virt. eigenvalues --    5.63617   6.19359  23.80456  24.05818  24.15290
 Alpha virt. eigenvalues --   24.17197  24.21943  24.26045  24.41171  24.43840
 Alpha virt. eigenvalues --   24.51681  24.53245  50.17887
          Condensed to atoms (all electrons):
               1          2          3          4          5          6
     1  C   28.640154  -7.373209  -3.610284  -5.916332  -1.603781   0.035186
     2  C   -7.373209  24.947274  -3.752289   2.134103  -4.137326  -6.535751
     3  C   -3.610284  -3.752289  12.478933   1.499519   0.534471   0.351456
     4  C   -5.916332   2.134103   1.499519  10.608746  -0.709369  -1.292126
     5  C   -1.603781  -4.137326   0.534471  -0.709369   9.811910   2.625839
     6  C    0.035186  -6.535751   0.351456  -1.292126   2.625839  12.752765
     7  C   -4.195262   1.205632   0.610373  -0.835507   0.382483  -0.736356
     8  O    0.160983  -0.266804   0.134437   0.010605  -0.030543   0.346424
     9  C    1.889464  -1.586651  -0.801918  -0.245209  -0.080064   0.627657
    10  H   -0.199575   0.116068   0.041309   0.537175   0.009436  -0.072682
    11  C   -0.835090   0.602640   0.191257   0.130774  -0.059851  -1.419952
    12  H    0.028808  -0.093502  -0.045481  -0.007799   0.492066   0.084456
    13  C   -1.331239   0.977678  -1.285322   0.493526  -0.972180  -0.896628
    14  H   -0.213650  -0.125824  -0.102274   0.001940   0.060895   0.498246
    15  H   -0.180400   0.052928  -0.099027   0.028247  -0.021343  -0.014845
    16  H   -0.254315   0.092356   0.252094   0.007067  -0.019716  -0.183822
    17  H    0.196552  -0.089623   0.001991  -0.145846   0.014058   0.020882
    18  H   -0.036099   0.055010  -0.019934   0.026376  -0.058462  -0.047641
    19  H    0.066460  -0.048378   0.039955  -0.022120  -0.026502  -0.007499
               7          8          9         10         11         12
     1  C   -4.195262   0.160983   1.889464  -0.199575  -0.835090   0.028808
     2  C    1.205632  -0.266804  -1.586651   0.116068   0.602640  -0.093502
     3  C    0.610373   0.134437  -0.801918   0.041309   0.191257  -0.045481
     4  C   -0.835507   0.010605  -0.245209   0.537175   0.130774  -0.007799
     5  C    0.382483  -0.030543  -0.080064   0.009436  -0.059851   0.492066
     6  C   -0.736356   0.346424   0.627657  -0.072682  -1.419952   0.084456
     7  C   10.167339  -0.706347  -0.009082   0.033097   0.132703  -0.009684
     8  O   -0.706347   8.083881   0.034400  -0.000330   0.009016   0.000110
     9  C   -0.009082   0.034400   6.316566  -0.139882  -0.376055   0.058857
    10  H    0.033097  -0.000330  -0.139882   0.503752   0.055266  -0.004204
    11  C    0.132703   0.009016  -0.376055   0.055266   6.659575  -0.135381
    12  H   -0.009684   0.000110   0.058857  -0.004204  -0.135381   0.503996
    13  C   -0.628749   0.259323   0.037861   0.000773   0.779892  -0.000369
    14  H   -0.064909   0.040132  -0.004801   0.000665   0.041463  -0.000457
    15  H    0.659139  -0.043282  -0.079143   0.003405   0.001909  -0.001154
    16  H    0.293204   0.189998  -0.003169   0.001070  -0.000876   0.000077
    17  H   -0.165242   0.003351   0.505146  -0.022831  -0.003434   0.002546
    18  H   -0.003430   0.000229   0.001331   0.001071   0.477737  -0.020418
    19  H    0.013284  -0.001670  -0.001482  -0.000438  -0.071902   0.001723
              13         14         15         16         17         18
     1  C   -1.331239  -0.213650  -0.180400  -0.254315   0.196552  -0.036099
     2  C    0.977678  -0.125824   0.052928   0.092356  -0.089623   0.055010
     3  C   -1.285322  -0.102274  -0.099027   0.252094   0.001991  -0.019934
     4  C    0.493526   0.001940   0.028247   0.007067  -0.145846   0.026376
     5  C   -0.972180   0.060895  -0.021343  -0.019716   0.014058  -0.058462
     6  C   -0.896628   0.498246  -0.014845  -0.183822   0.020882  -0.047641
     7  C   -0.628749  -0.064909   0.659139   0.293204  -0.165242  -0.003430
     8  O    0.259323   0.040132  -0.043282   0.189998   0.003351   0.000229
     9  C    0.037861  -0.004801  -0.079143  -0.003169   0.505146   0.001331
    10  H    0.000773   0.000665   0.003405   0.001070  -0.022831   0.001071
    11  C    0.779892   0.041463   0.001909  -0.000876  -0.003434   0.477737
    12  H   -0.000369  -0.000457  -0.001154   0.000077   0.002546  -0.020418
    13  C    8.288206   0.221359   0.008798  -0.120717  -0.002349  -0.049634
    14  H    0.221359   0.654362   0.001913  -0.042450  -0.000520   0.001298
    15  H    0.008798   0.001913   0.501797   0.003427  -0.024888   0.000012
    16  H   -0.120717  -0.042450   0.003427   0.511378  -0.001090  -0.000253
    17  H   -0.002349  -0.000520  -0.024888  -0.001090   0.518848  -0.000069
    18  H   -0.049634   0.001298   0.000012  -0.000253  -0.000069   0.506987
    19  H    0.402972  -0.029963   0.000031   0.002563  -0.000022  -0.014893
              19
     1  C    0.066460
     2  C   -0.048378
     3  C    0.039955
     4  C   -0.022120
     5  C   -0.026502
     6  C   -0.007499
     7  C    0.013284
     8  O   -0.001670
     9  C   -0.001482
    10  H   -0.000438
    11  C   -0.071902
    12  H    0.001723
    13  C    0.402972
    14  H   -0.029963
    15  H    0.000031
    16  H    0.002563
    17  H   -0.000022
    18  H   -0.014893
    19  H    0.505397
 Mulliken charges:
               1
     1  C    0.731628
     2  C   -0.174331
     3  C   -0.419266
     4  C   -0.303769
     5  C   -0.212020
     6  C   -0.135610
     7  C   -0.142687
     8  O   -0.223914
     9  C   -0.143828
    10  H    0.136856
    11  C   -0.179692
    12  H    0.145808
    13  C   -0.183200
    14  H    0.062575
    15  H    0.202476
    16  H    0.273174
    17  H    0.192539
    18  H    0.180781
    19  H    0.192481
 Sum of Mulliken charges =  -0.00000
 Mulliken charges with hydrogens summed into heavy atoms:
               1
     1  C    0.731628
     2  C   -0.174331
     3  C   -0.419266
     4  C   -0.166914
     5  C   -0.066212
     6  C   -0.073035
     7  C    0.059789
     8  O    0.049260
     9  C    0.048711
    11  C    0.001089
    13  C    0.009281
 Electronic spatial extent (au):  <R**2>=           1501.3609
 Charge=              0.0000 electrons
 Dipole moment (field-independent basis, Debye):
    X=             -1.4978    Y=             -0.4880    Z=              0.4169  Tot=              1.6295
 Quadrupole moment (field-independent basis, Debye-Ang):
   XX=            -57.6409   YY=            -56.5011   ZZ=            -67.6997
   XY=             -4.5612   XZ=              0.3803   YZ=              1.3180
 Traceless Quadrupole moment (field-independent basis, Debye-Ang):
   XX=              2.9730   YY=              4.1128   ZZ=             -7.0858
   XY=             -4.5612   XZ=              0.3803   YZ=              1.3180
 Octapole moment (field-independent basis, Debye-Ang**2):
  XXX=             -5.4227  YYY=              6.2444  ZZZ=              0.2167  XYY=             -9.8530
  XXY=            -10.4050  XXZ=             -0.0047  XZZ=              3.1132  YZZ=              4.9410
  YYZ=              3.8832  XYZ=              1.2101
 Hexadecapole moment (field-independent basis, Debye-Ang**3):
 XXXX=          -1097.2554 YYYY=           -643.3200 ZZZZ=            -77.1212 XXXY=            -22.5584
 XXXZ=             -0.4393 YYYX=            -16.6379 YYYZ=             10.9347 ZZZX=              0.2859
 ZZZY=              0.9932 XXYY=           -320.7066 XXZZ=           -236.5621 YYZZ=           -141.3810
 XXYZ=              0.4880 YYXZ=              3.8070 ZZXY=              6.7871
 N-N= 5.634418005970D+02 E-N=-2.201203353696D+03  KE= 4.616682519736D+02
 No NMR shielding tensors so no spin-rotation constants.
 Leave Link  601 at Mon Nov 21 14:56:08 2022, MaxMem= 16106127360 cpu:              15.4 elap:               0.5
 (Enter /opt/ap/G16/B01/g16/l9999.exe)
 1\1\GINC-N09\SP\RwB97XD\6-311++G(d,p)\C10H8O1\ROOT\21-Nov-2022\0\\#P w
 B97XD/6-311++G(d,p) scf=maxcycle=512\\_conf040.gjf nmol_natom 1_19\\0,
 1\C\C,1,1.40879539\C,1,1.42289824,2,117.24956717\C,2,1.41887971,1,119.
 07594714,3,0.16510261,0\C,2,1.42227783,1,117.46262303,3,-179.44443577,
 0\C,1,1.42440336,2,119.00293897,4,179.73740031,0\C,3,1.35510367,1,122.
 33979448,2,-0.36120568,0\O,3,1.37615658,1,115.04370777,2,-179.5931286,
 0\C,4,1.34577659,2,121.30210156,1,0.17277764,0\H,4,0.93023405,2,119.33
 469462,1,-179.75965297,0\C,5,1.34486794,2,122.06073707,1,-0.32265162,0
 \H,5,0.92957893,2,118.96449269,1,179.64671542,0\C,6,1.35980576,1,121.1
 112438,2,0.11625163,0\H,6,0.92999796,1,119.43671105,2,-179.87270235,0\
 H,7,0.93052813,3,120.28038366,1,-179.76477098,0\H,8,0.81991994,3,109.4
 8785721,1,20.,0\H,9,0.93027331,4,119.71917791,2,179.60144151,0\H,11,0.
 92987565,5,119.70372857,2,-179.69197286,0\H,13,0.93032717,6,120.145246
 92,1,179.85241379,0\\Version=ES64L-G16RevB.01\State=1-A\HF=-460.888707
 2\RMSD=5.045e-09\Dipole=-0.5354764,0.1593243,0.3144815\Quadrupole=3.66
 47535,-5.2551762,1.5904227,0.0955249,3.2641293,-1.0403089\PG=C01 [X(C1
 0H8O1)]\\@


 NO HUMAN INVESTIGATION CAN BECOME REAL SCIENCE
 WITHOUT GOING THROUGH MATHEMATICAL PEOPLE.
 -- LEONARDO DA VINCI, IN "PENSIERI" CA. 1492
 Job cpu time:       0 days  0 hours 12 minutes 51.3 seconds.
 Elapsed time:       0 days  0 hours  0 minutes 24.3 seconds.
 File lengths (MBytes):  RWF=     51 Int=      0 D2E=      0 Chk=      6 Scr=      1
 Normal termination of Gaussian 16 at Mon Nov 21 14:56:08 2022.
