 Entering Gaussian System, Link 0=g16
 Input=_conf045.gjf
 Output=_conf045.log
 Initial command:
 /opt/ap/G16/B01/g16/l1.exe "/tmp2/scr/Gau-10870.inp" -scrdir="/tmp2/scr/"
 Entering Link 1 = /opt/ap/G16/B01/g16/l1.exe PID=     10871.
  
 Copyright (c) 1988-2017, Gaussian, Inc.  All Rights Reserved.
  
 This is part of the Gaussian(R) 16 program.  It is based on
 the Gaussian(R) 09 system (copyright 2009, Gaussian, Inc.),
 the Gaussian(R) 03 system (copyright 2003, Gaussian, Inc.),
 the Gaussian(R) 98 system (copyright 1998, Gaussian, Inc.),
 the Gaussian(R) 94 system (copyright 1995, Gaussian, Inc.),
 the Gaussian 92(TM) system (copyright 1992, Gaussian, Inc.),
 the Gaussian 90(TM) system (copyright 1990, Gaussian, Inc.),
 the Gaussian 88(TM) system (copyright 1988, Gaussian, Inc.),
 the Gaussian 86(TM) system (copyright 1986, Carnegie Mellon
 University), and the Gaussian 82(TM) system (copyright 1983,
 Carnegie Mellon University). Gaussian is a federally registered
 trademark of Gaussian, Inc.
  
 This software contains proprietary and confidential information,
 including trade secrets, belonging to Gaussian, Inc.
  
 This software is provided under written license and may be
 used, copied, transmitted, or stored only in accord with that
 written license.
  
 The following legend is applicable only to US Government
 contracts under FAR:
  
                    RESTRICTED RIGHTS LEGEND
  
 Use, reproduction and disclosure by the US Government is
 subject to restrictions as set forth in subparagraphs (a)
 and (c) of the Commercial Computer Software - Restricted
 Rights clause in FAR 52.227-19.
  
 Gaussian, Inc.
 340 Quinnipiac St., Bldg. 40, Wallingford CT 06492
  
  
 ---------------------------------------------------------------
 Warning -- This program may not be used in any manner that
 competes with the business of Gaussian, Inc. or will provide
 assistance to any competitor of Gaussian, Inc.  The licensee
 of this program is prohibited from giving any competitor of
 Gaussian, Inc. access to this program.  By using this program,
 the user acknowledges that Gaussian, Inc. is engaged in the
 business of creating and licensing software in the field of
 computational chemistry and represents and warrants to the
 licensee that it is not a competitor of Gaussian, Inc. and that
 it will not use this program in any manner prohibited above.
 ---------------------------------------------------------------
  

 Cite this work as:
 Gaussian 16, Revision B.01,
 M. J. Frisch, G. W. Trucks, H. B. Schlegel, G. E. Scuseria, 
 M. A. Robb, J. R. Cheeseman, G. Scalmani, V. Barone, 
 G. A. Petersson, H. Nakatsuji, X. Li, M. Caricato, A. V. Marenich, 
 J. Bloino, B. G. Janesko, R. Gomperts, B. Mennucci, H. P. Hratchian, 
 J. V. Ortiz, A. F. Izmaylov, J. L. Sonnenberg, D. Williams-Young, 
 F. Ding, F. Lipparini, F. Egidi, J. Goings, B. Peng, A. Petrone, 
 T. Henderson, D. Ranasinghe, V. G. Zakrzewski, J. Gao, N. Rega, 
 G. Zheng, W. Liang, M. Hada, M. Ehara, K. Toyota, R. Fukuda, 
 J. Hasegawa, M. Ishida, T. Nakajima, Y. Honda, O. Kitao, H. Nakai, 
 T. Vreven, K. Throssell, J. A. Montgomery, Jr., J. E. Peralta, 
 F. Ogliaro, M. J. Bearpark, J. J. Heyd, E. N. Brothers, K. N. Kudin, 
 V. N. Staroverov, T. A. Keith, R. Kobayashi, J. Normand, 
 K. Raghavachari, A. P. Rendell, J. C. Burant, S. S. Iyengar, 
 J. Tomasi, M. Cossi, J. M. Millam, M. Klene, C. Adamo, R. Cammi, 
 J. W. Ochterski, R. L. Martin, K. Morokuma, O. Farkas, 
 J. B. Foresman, and D. J. Fox, Gaussian, Inc., Wallingford CT, 2016.
 
 ******************************************
 Gaussian 16:  ES64L-G16RevB.01 20-Dec-2017
                21-Nov-2022 
 ******************************************
 %nprocshared=32
 Will use up to   32 processors via shared memory.
 %mem=120GB
 %chk=_conf045.chk
 ----------------------------------------
 #P wB97XD/6-311++G(d,p) scf=maxcycle=512
 ----------------------------------------
 1/38=1,172=1/1;
 2/12=2,17=6,18=5,40=1/2;
 3/5=4,6=6,7=1111,11=2,25=1,30=1,74=-58/1,2,3;
 4//1;
 5/5=2,7=512,38=5/2;
 6/7=2,8=2,9=2,10=2,28=1/1;
 99/5=1,9=1/99;
 Leave Link    1 at Mon Nov 21 14:56:10 2022, MaxMem= 16106127360 cpu:               1.4 elap:               0.1
 (Enter /opt/ap/G16/B01/g16/l101.exe)
 ----------------------------
 _conf045.gjf nmol_natom 1_19
 ----------------------------
 Symbolic Z-matrix:
 Charge =  0 Multiplicity = 1
 C
 C                    1     1.4088 
 C                    1     1.4229   2     117.24957 
 C                    2     1.41888  1     119.07595  3     0.1651   0
 C                    2     1.42228  1     117.46262  3    -179.44444  0
 C                    1     1.4244   2     119.00294  4     179.7374  0
 C                    3     1.3551   1     122.33979  2    -0.36121  0
 O                    3     1.37616  1     115.04371  2    -179.59313  0
 C                    4     1.34578  2     121.3021  1     0.17278  0
 H                    4     0.93023  2     119.33469  1    -179.75965  0
 C                    5     1.34487  2     122.06074  1    -0.32265  0
 H                    5     0.92958  2     118.96449  1     179.64672  0
 C                    6     1.35981  1     121.11124  2     0.11625  0
 H                    6     0.93     1     119.43671  2    -179.8727  0
 H                    7     0.93053  3     120.28038  1    -179.76477  0
 H                    8     0.81992  3     109.48786  1     45.      0
 H                    9     0.93027  4     119.71918  2     179.60144  0
 H                    11    0.92988  5     119.70373  2    -179.69197  0
 H                    13    0.93033  6     120.14525  1     179.85241  0
 
 ITRead=  0  0  0  0  0  0  0  0  0  0  0  0  0  0  0  0  0  0  0
 MicOpt= -1 -1 -1 -1 -1 -1 -1 -1 -1 -1 -1 -1 -1 -1 -1 -1 -1 -1 -1
 NAtoms=     19 NQM=       19 NQMF=       0 NMMI=      0 NMMIF=      0
                NMic=       0 NMicF=      0.
                    Isotopes and Nuclear Properties:
 (Nuclear quadrupole moments (NQMom) in fm**2, nuclear magnetic moments (NMagM)
  in nuclear magnetons)

  Atom         1           2           3           4           5           6           7           8           9          10
 IAtWgt=          12          12          12          12          12          12          12          16          12           1
 AtmWgt=  12.0000000  12.0000000  12.0000000  12.0000000  12.0000000  12.0000000  12.0000000  15.9949146  12.0000000   1.0078250
 NucSpn=           0           0           0           0           0           0           0           0           0           1
 AtZEff=  -0.0000000  -0.0000000  -0.0000000  -0.0000000  -0.0000000  -0.0000000  -0.0000000  -0.0000000  -0.0000000  -0.0000000
 NQMom=    0.0000000   0.0000000   0.0000000   0.0000000   0.0000000   0.0000000   0.0000000   0.0000000   0.0000000   0.0000000
 NMagM=    0.0000000   0.0000000   0.0000000   0.0000000   0.0000000   0.0000000   0.0000000   0.0000000   0.0000000   2.7928460
 AtZNuc=   6.0000000   6.0000000   6.0000000   6.0000000   6.0000000   6.0000000   6.0000000   8.0000000   6.0000000   1.0000000

  Atom        11          12          13          14          15          16          17          18          19
 IAtWgt=          12           1          12           1           1           1           1           1           1
 AtmWgt=  12.0000000   1.0078250  12.0000000   1.0078250   1.0078250   1.0078250   1.0078250   1.0078250   1.0078250
 NucSpn=           0           1           0           1           1           1           1           1           1
 AtZEff=  -0.0000000  -0.0000000  -0.0000000  -0.0000000  -0.0000000  -0.0000000  -0.0000000  -0.0000000  -0.0000000
 NQMom=    0.0000000   0.0000000   0.0000000   0.0000000   0.0000000   0.0000000   0.0000000   0.0000000   0.0000000
 NMagM=    0.0000000   2.7928460   0.0000000   2.7928460   2.7928460   2.7928460   2.7928460   2.7928460   2.7928460
 AtZNuc=   6.0000000   1.0000000   6.0000000   1.0000000   1.0000000   1.0000000   1.0000000   1.0000000   1.0000000
 Leave Link  101 at Mon Nov 21 14:56:10 2022, MaxMem= 16106127360 cpu:               5.7 elap:               0.2
 (Enter /opt/ap/G16/B01/g16/l202.exe)
                          Input orientation:                          
 ---------------------------------------------------------------------
 Center     Atomic      Atomic             Coordinates (Angstroms)
 Number     Number       Type             X           Y           Z
 ---------------------------------------------------------------------
      1          6           0        0.000000    0.000000    0.000000
      2          6           0        0.000000    0.000000    1.408795
      3          6           0        1.264986    0.000000   -0.651498
      4          6           0        1.240062    0.003573    2.098326
      5          6           0       -1.261945   -0.012237    2.064707
      6          6           0       -1.245741   -0.009299   -0.690628
      7          6           0        2.433644    0.007218    0.034427
      8          8           0        1.212032    0.008854   -2.026607
      9          6           0        2.409936    0.010412    1.433147
     10          1           0        1.244276    0.000184    3.028545
     11          6           0       -2.421000   -0.017057    1.382624
     12          1           0       -1.286266   -0.017488    2.993953
     13          6           0       -2.424704   -0.015738   -0.013076
     14          1           0       -1.252769   -0.011151   -1.620598
     15          1           0        3.245045    0.010306   -0.421097
     16          1           0        0.657134    0.558800   -2.275438
     17          1           0        3.210137    0.018260    1.907515
     18          1           0       -3.227740   -0.020753    1.845035
     19          1           0       -3.230632   -0.019714   -0.477804
 ---------------------------------------------------------------------
                    Distance matrix (angstroms):
                    1          2          3          4          5
     1  C    0.000000
     2  C    1.408795   0.000000
     3  C    1.422898   2.417643   0.000000
     4  C    2.437363   1.418880   2.749940   0.000000
     5  C    2.419849   1.422278   3.709892   2.502283   0.000000
     6  C    1.424403   2.441216   2.511049   3.735994   2.755385
     7  C    2.433898   2.794917   1.355104   2.384184   4.216609
     8  O    2.361406   3.642951   1.376157   4.125032   4.781198
     9  C    2.803892   2.410081   2.378396   1.345777   3.725867
    10  H    3.274188   2.042501   3.680101   0.930234   2.685197
    11  C    2.788042   2.421201   4.210040   3.730420   1.344868
    12  H    3.258610   2.041448   4.449551   2.680471   0.929579
    13  C    2.424790   2.810899   3.744548   4.229527   2.381009
    14  H    2.048388   3.278228   2.697845   4.477144   3.685317
    15  H    3.272269   3.725443   1.993445   3.219859   5.147104
    16  H    2.433454   3.783868   1.821790   4.447234   4.779728
    17  H    3.734157   3.248697   3.214420   1.979348   4.474947
    18  H    3.717915   3.257153   5.139815   4.475043   1.978050
    19  H    3.265834   3.741207   4.499015   5.159854   3.215610
                    6          7          8          9         10
     6  C    0.000000
     7  C    3.750180   0.000000
     8  O    2.797466   2.395871   0.000000
     9  C    4.227858   1.398925   3.661267   0.000000
    10  H    4.475771   3.221706   5.055262   1.975895   0.000000
    11  C    2.383205   5.038431   4.982213   4.831278   4.017910
    12  H    3.684813   4.753644   5.607870   4.012331   2.530840
    13  C    1.359806   4.858634   4.157013   5.046383   4.765829
    14  H    0.929998   4.040926   2.498097   4.768777   5.277300
    15  H    4.498910   0.930528   2.590522   2.033624   3.987882
    16  H    2.540727   2.965755   0.819920   4.138435   5.365539
    17  H    5.158096   2.027689   4.412463   0.930273   2.263105
    18  H    3.218391   5.943934   5.890846   5.652788   4.626021
    19  H    1.996295   5.687453   4.704984   5.955556   5.685040
                   11         12         13         14         15
    11  C    0.000000
    12  H    1.970788   0.000000
    13  C    1.395705   3.215317   0.000000
    14  H    3.222443   4.614677   1.989366   0.000000
    15  H    5.946277   5.674162   5.684470   4.655061   0.000000
    16  H    4.815385   5.645829   3.866019   2.097949   3.230589
    17  H    5.655657   4.625934   5.953256   5.689110   2.328887
    18  H    0.929876   2.255958   2.024221   3.988887   6.858080
    19  H    2.028966   3.979153   0.930327   2.284293   6.475995
                   16         17         18         19
    16  H    0.000000
    17  H    4.930223   0.000000
    18  H    5.692664   6.438299   0.000000
    19  H    4.322140   6.868384   2.322841   0.000000
 Stoichiometry    C10H8O
 Framework group  C1[X(C10H8O)]
 Deg. of freedom    51
 Full point group                 C1      NOp   1
 Largest Abelian subgroup         C1      NOp   1
 Largest concise Abelian subgroup C1      NOp   1
                         Standard orientation:                         
 ---------------------------------------------------------------------
 Center     Atomic      Atomic             Coordinates (Angstroms)
 Number     Number       Type             X           Y           Z
 ---------------------------------------------------------------------
      1          6           0       -0.026581    0.426070   -0.008950
      2          6           0       -0.333604   -0.948777    0.006493
      3          6           0        1.349941    0.786097   -0.023370
      4          6           0        0.726369   -1.891996    0.010488
      5          6           0       -1.708217   -1.313889    0.008708
      6          6           0       -1.091902    1.371544   -0.018650
      7          6           0        2.341042   -0.138002   -0.015359
      8          8           0        1.598014    2.139697   -0.029286
      9          6           0        2.013104   -1.497819    0.003303
     10          1           0        0.527729   -2.800749    0.017271
     11          6           0       -2.690765   -0.395609    0.003081
     12          1           0       -1.934508   -2.215490    0.013783
     13          6           0       -2.390201    0.967277   -0.010877
     14          1           0       -0.896105    2.280618   -0.030655
     15          1           0        3.232212    0.129684   -0.021934
     16          1           0        1.115102    2.508694    0.521084
     17          1           0        2.690727   -2.135128    0.011745
     18          1           0       -3.578893   -0.671040    0.009097
     19          1           0       -3.075484    1.596464   -0.015309
 ---------------------------------------------------------------------
 Rotational constants (GHZ):           2.0023291           1.1583207           0.7344605
 Leave Link  202 at Mon Nov 21 14:56:10 2022, MaxMem= 16106127360 cpu:               0.3 elap:               0.0
 (Enter /opt/ap/G16/B01/g16/l301.exe)
 Standard basis: 6-311++G(d,p) (5D, 7F)
 Ernie: Thresh=  0.10000D-02 Tol=  0.10000D-05 Strict=F.
 There are   309 symmetry adapted cartesian basis functions of A   symmetry.
 There are   298 symmetry adapted basis functions of A   symmetry.
   298 basis functions,   468 primitive gaussians,   309 cartesian basis functions
    38 alpha electrons       38 beta electrons
       nuclear repulsion energy       563.2093904877 Hartrees.
 IExCor= 4639 DFT=T Ex+Corr=wB97XD ExCW=0 ScaHFX=  1.000000
 ScaDFX=  1.000000  1.000000  1.000000  1.000000 ScalE2=  1.000000  1.000000
 IRadAn=      5 IRanWt=     -1 IRanGd=            0 ICorTp=0 IEmpDi=121
 HFx  wShort=  0.000000 wLong=  0.200000 cFull=  0.222036 cShort=  0.000000 cLong=  0.777964
 DFx  wShort=  0.000000 wLong=  0.200000 cFull=  0.000000 cShort=  0.000000 cLong=  1.000000
 NAtoms=   19 NActive=   19 NUniq=   19 SFac= 1.00D+00 NAtFMM=   60 NAOKFM=F Big=F
 Integral buffers will be    131072 words long.
 Raffenetti 2 integral format.
 Two-electron integral symmetry is turned on.
 R6Disp:  Grimme-D2 Dispersion energy=       -0.0103195609 Hartrees.
 Nuclear repulsion after empirical dispersion term =      563.1990709268 Hartrees.
 Leave Link  301 at Mon Nov 21 14:56:11 2022, MaxMem= 16106127360 cpu:               1.2 elap:               0.0
 (Enter /opt/ap/G16/B01/g16/l302.exe)
 NPDir=0 NMtPBC=     1 NCelOv=     1 NCel=       1 NClECP=     1 NCelD=      1
         NCelK=      1 NCelE2=     1 NClLst=     1 CellRange=     0.0.
 One-electron integrals computed using PRISM.
 One-electron integral symmetry used in STVInt
 NBasis=   298 RedAO= T EigKep=  1.28D-06  NBF=   298
 NBsUse=   296 1.00D-06 EigRej=  6.41D-07 NBFU=   296
 Precomputing XC quadrature grid using
 IXCGrd= 4 IRadAn=           5 IRanWt=          -1 IRanGd=           0 AccXCQ= 0.00D+00.
 Generated NRdTot=       0 NPtTot=           0 NUsed=           0 NTot=          32
 NSgBfM=   309   309   309   309   309 MxSgAt=    19 MxSgA2=    19.
 Leave Link  302 at Mon Nov 21 14:56:11 2022, MaxMem= 16106127360 cpu:               6.4 elap:               0.2
 (Enter /opt/ap/G16/B01/g16/l303.exe)
 DipDrv:  MaxL=1.
 Leave Link  303 at Mon Nov 21 14:56:11 2022, MaxMem= 16106127360 cpu:               1.4 elap:               0.1
 (Enter /opt/ap/G16/B01/g16/l401.exe)
 ExpMin= 3.60D-02 ExpMax= 8.59D+03 ExpMxC= 1.30D+03 IAcc=3 IRadAn=         5 AccDes= 0.00D+00
 Harris functional with IExCor= 4639 and IRadAn=       5 diagonalized for initial guess.
 HarFok:  IExCor= 4639 AccDes= 0.00D+00 IRadAn=         5 IDoV= 1 UseB2=F ITyADJ=14
 ICtDFT=  3500011 ScaDFX=  1.000000  1.000000  1.000000  1.000000
 FoFCou: FMM=F IPFlag=           0 FMFlag=      100000 FMFlg1=           0
         NFxFlg=           0 DoJE=T BraDBF=F KetDBF=T FulRan=T
         wScrn=  0.000000 ICntrl=       500 IOpCl=  0 I1Cent=   200000004 NGrid=           0
         NMat0=    1 NMatS0=      1 NMatT0=    0 NMatD0=    1 NMtDS0=    0 NMtDT0=    0
 Petite list used in FoFCou.
 Harris En= -440.612536761895    
 JPrj=0 DoOrth=F DoCkMO=F.
 Leave Link  401 at Mon Nov 21 14:56:11 2022, MaxMem= 16106127360 cpu:              17.0 elap:               0.5
 (Enter /opt/ap/G16/B01/g16/l502.exe)
 Integral symmetry usage will be decided dynamically.
 Closed shell SCF:
 Using DIIS extrapolation, IDIIS=  1040.
 NGot= 16106127360 LenX= 16105923535 LenY= 16105827613
 Requested convergence on RMS density matrix=1.00D-08 within 512 cycles.
 Requested convergence on MAX density matrix=1.00D-06.
 Requested convergence on             energy=1.00D-06.
 No special actions if energy rises.
 Fock matrices will be formed incrementally for  20 cycles.

 Cycle   1  Pass 1  IDiag  1:
 FoFJK:  IHMeth= 1 ICntrl=       0 DoSepK=T KAlg= 0 I1Cent=           0 FoldK=F
 IRaf=         1 NMat=       1 IRICut=       1 DoRegI=T DoRafI=F ISym2E= 0 IDoP0=0 IntGTp=1.
 FoFCou: FMM=F IPFlag=           0 FMFlag=      100000 FMFlg1=           0
         NFxFlg=           0 DoJE=T BraDBF=F KetDBF=F FulRan=T
         wScrn=  0.000000 ICntrl=       500 IOpCl=  0 I1Cent=           0 NGrid=           0
         NMat0=    1 NMatS0=      1 NMatT0=    0 NMatD0=    1 NMtDS0=    0 NMtDT0=    0
 Symmetry not used in FoFCou.
 E= -460.750368763744    
 DIIS: error= 6.20D-02 at cycle   1 NSaved=   1.
 NSaved= 1 IEnMin= 1 EnMin= -460.750368763744     IErMin= 1 ErrMin= 6.20D-02
 ErrMax= 6.20D-02  0.00D+00 EMaxC= 1.00D-01 BMatC= 9.56D-01 BMatP= 9.56D-01
 IDIUse=3 WtCom= 3.80D-01 WtEn= 6.20D-01
 Coeff-Com:  0.100D+01
 Coeff-En:   0.100D+01
 Coeff:      0.100D+01
 Gap=     0.335 Goal=   None    Shift=    0.000
 GapD=    0.335 DampG=1.000 DampE=0.500 DampFc=0.5000 IDamp=-1.
 Damping current iteration by 5.00D-01
 RMSDP=4.55D-02 MaxDP=5.03D+00              OVMax= 1.43D-01

 Cycle   2  Pass 1  IDiag  1:
 RMSU=  8.67D-03    CP:  8.11D-01
 E= -460.817578754546     Delta-E=       -0.067209990802 Rises=F Damp=T
 DIIS: error= 3.10D-02 at cycle   2 NSaved=   2.
 NSaved= 2 IEnMin= 2 EnMin= -460.817578754546     IErMin= 2 ErrMin= 3.10D-02
 ErrMax= 3.10D-02  0.00D+00 EMaxC= 1.00D-01 BMatC= 2.08D-01 BMatP= 9.56D-01
 IDIUse=3 WtCom= 6.90D-01 WtEn= 3.10D-01
 Coeff-Com: -0.713D+00 0.171D+01
 Coeff-En:   0.000D+00 0.100D+01
 Coeff:     -0.492D+00 0.149D+01
 Gap=     0.331 Goal=   None    Shift=    0.000
 RMSDP=2.63D-02 MaxDP=2.98D+00 DE=-6.72D-02 OVMax= 1.39D-01

 Cycle   3  Pass 1  IDiag  1:
 RMSU=  6.34D-03    CP:  5.83D-01  1.43D+00
 E= -460.862821873832     Delta-E=       -0.045243119286 Rises=F Damp=F
 DIIS: error= 9.60D-03 at cycle   3 NSaved=   3.
 NSaved= 3 IEnMin= 3 EnMin= -460.862821873832     IErMin= 3 ErrMin= 9.60D-03
 ErrMax= 9.60D-03  0.00D+00 EMaxC= 1.00D-01 BMatC= 2.73D-02 BMatP= 2.08D-01
 IDIUse=3 WtCom= 9.04D-01 WtEn= 9.60D-02
 Coeff-Com: -0.356D+00 0.758D+00 0.598D+00
 Coeff-En:   0.000D+00 0.000D+00 0.100D+01
 Coeff:     -0.322D+00 0.685D+00 0.637D+00
 Gap=     0.313 Goal=   None    Shift=    0.000
 RMSDP=3.97D-03 MaxDP=3.89D-01 DE=-4.52D-02 OVMax= 6.20D-02

 Cycle   4  Pass 1  IDiag  1:
 RMSU=  1.33D-03    CP:  5.62D-01  1.60D+00  6.02D-01
 E= -460.887288261918     Delta-E=       -0.024466388086 Rises=F Damp=F
 DIIS: error= 1.37D-03 at cycle   4 NSaved=   4.
 NSaved= 4 IEnMin= 4 EnMin= -460.887288261918     IErMin= 4 ErrMin= 1.37D-03
 ErrMax= 1.37D-03  0.00D+00 EMaxC= 1.00D-01 BMatC= 8.50D-04 BMatP= 2.73D-02
 IDIUse=3 WtCom= 9.86D-01 WtEn= 1.37D-02
 Coeff-Com: -0.123D+00 0.262D+00 0.286D+00 0.575D+00
 Coeff-En:   0.000D+00 0.000D+00 0.000D+00 0.100D+01
 Coeff:     -0.121D+00 0.258D+00 0.282D+00 0.581D+00
 Gap=     0.307 Goal=   None    Shift=    0.000
 RMSDP=5.39D-04 MaxDP=2.72D-02 DE=-2.45D-02 OVMax= 8.07D-03

 Cycle   5  Pass 1  IDiag  1:
 RMSU=  3.61D-04    CP:  5.62D-01  1.61D+00  6.52D-01  8.18D-01
 E= -460.888087823903     Delta-E=       -0.000799561985 Rises=F Damp=F
 DIIS: error= 2.37D-04 at cycle   5 NSaved=   5.
 NSaved= 5 IEnMin= 5 EnMin= -460.888087823903     IErMin= 5 ErrMin= 2.37D-04
 ErrMax= 2.37D-04  0.00D+00 EMaxC= 1.00D-01 BMatC= 1.67D-05 BMatP= 8.50D-04
 IDIUse=3 WtCom= 9.98D-01 WtEn= 2.37D-03
 Coeff-Com:  0.789D-02-0.165D-01 0.920D-02 0.138D+00 0.861D+00
 Coeff-En:   0.000D+00 0.000D+00 0.000D+00 0.000D+00 0.100D+01
 Coeff:      0.787D-02-0.165D-01 0.918D-02 0.138D+00 0.862D+00
 Gap=     0.307 Goal=   None    Shift=    0.000
 RMSDP=2.26D-04 MaxDP=1.04D-02 DE=-8.00D-04 OVMax= 2.88D-03

 Cycle   6  Pass 1  IDiag  1:
 RMSU=  1.89D-04    CP:  5.62D-01  1.62D+00  6.60D-01  8.41D-01  1.07D+00
 E= -460.888111388689     Delta-E=       -0.000023564786 Rises=F Damp=F
 DIIS: error= 1.54D-04 at cycle   6 NSaved=   6.
 NSaved= 6 IEnMin= 6 EnMin= -460.888111388689     IErMin= 6 ErrMin= 1.54D-04
 ErrMax= 1.54D-04  0.00D+00 EMaxC= 1.00D-01 BMatC= 3.90D-06 BMatP= 1.67D-05
 IDIUse=3 WtCom= 9.98D-01 WtEn= 1.54D-03
 Coeff-Com:  0.166D-01-0.354D-01-0.252D-01-0.673D-02 0.350D+00 0.701D+00
 Coeff-En:   0.000D+00 0.000D+00 0.000D+00 0.000D+00 0.000D+00 0.100D+01
 Coeff:      0.165D-01-0.353D-01-0.252D-01-0.672D-02 0.350D+00 0.701D+00
 Gap=     0.307 Goal=   None    Shift=    0.000
 RMSDP=1.18D-04 MaxDP=1.09D-02 DE=-2.36D-05 OVMax= 1.02D-03

 Cycle   7  Pass 1  IDiag  1:
 RMSU=  4.99D-05    CP:  5.61D-01  1.62D+00  6.60D-01  8.55D-01  1.18D+00
                    CP:  9.73D-01
 E= -460.888116988210     Delta-E=       -0.000005599521 Rises=F Damp=F
 DIIS: error= 5.27D-05 at cycle   7 NSaved=   7.
 NSaved= 7 IEnMin= 7 EnMin= -460.888116988210     IErMin= 7 ErrMin= 5.27D-05
 ErrMax= 5.27D-05  0.00D+00 EMaxC= 1.00D-01 BMatC= 2.84D-07 BMatP= 3.90D-06
 IDIUse=1 WtCom= 1.00D+00 WtEn= 0.00D+00
 Coeff-Com:  0.131D-02-0.277D-02-0.274D-02-0.146D-01-0.580D-01 0.856D-01
 Coeff-Com:  0.991D+00
 Coeff:      0.131D-02-0.277D-02-0.274D-02-0.146D-01-0.580D-01 0.856D-01
 Coeff:      0.991D+00
 Gap=     0.307 Goal=   None    Shift=    0.000
 RMSDP=2.84D-05 MaxDP=1.84D-03 DE=-5.60D-06 OVMax= 7.04D-04

 Cycle   8  Pass 1  IDiag  1:
 RMSU=  1.54D-05    CP:  5.61D-01  1.62D+00  6.60D-01  8.55D-01  1.19D+00
                    CP:  1.03D+00  1.11D+00
 E= -460.888117903326     Delta-E=       -0.000000915116 Rises=F Damp=F
 DIIS: error= 2.34D-05 at cycle   8 NSaved=   8.
 NSaved= 8 IEnMin= 8 EnMin= -460.888117903326     IErMin= 8 ErrMin= 2.34D-05
 ErrMax= 2.34D-05  0.00D+00 EMaxC= 1.00D-01 BMatC= 9.05D-08 BMatP= 2.84D-07
 IDIUse=1 WtCom= 1.00D+00 WtEn= 0.00D+00
 Coeff-Com: -0.209D-02 0.450D-02 0.330D-02-0.422D-02-0.825D-01-0.862D-01
 Coeff-Com:  0.423D+00 0.744D+00
 Coeff:     -0.209D-02 0.450D-02 0.330D-02-0.422D-02-0.825D-01-0.862D-01
 Coeff:      0.423D+00 0.744D+00
 Gap=     0.307 Goal=   None    Shift=    0.000
 RMSDP=1.22D-05 MaxDP=1.07D-03 DE=-9.15D-07 OVMax= 2.42D-04

 Cycle   9  Pass 1  IDiag  1:
 RMSU=  6.91D-06    CP:  5.61D-01  1.62D+00  6.61D-01  8.53D-01  1.19D+00
                    CP:  1.07D+00  1.18D+00  1.02D+00
 E= -460.888118090437     Delta-E=       -0.000000187112 Rises=F Damp=F
 DIIS: error= 8.94D-06 at cycle   9 NSaved=   9.
 NSaved= 9 IEnMin= 9 EnMin= -460.888118090437     IErMin= 9 ErrMin= 8.94D-06
 ErrMax= 8.94D-06  0.00D+00 EMaxC= 1.00D-01 BMatC= 6.10D-09 BMatP= 9.05D-08
 IDIUse=1 WtCom= 1.00D+00 WtEn= 0.00D+00
 Coeff-Com: -0.696D-03 0.149D-02 0.132D-02 0.146D-02-0.112D-01-0.366D-01
 Coeff-Com: -0.502D-01 0.121D+00 0.974D+00
 Coeff:     -0.696D-03 0.149D-02 0.132D-02 0.146D-02-0.112D-01-0.366D-01
 Coeff:     -0.502D-01 0.121D+00 0.974D+00
 Gap=     0.307 Goal=   None    Shift=    0.000
 RMSDP=4.38D-06 MaxDP=4.74D-04 DE=-1.87D-07 OVMax= 1.32D-04

 Cycle  10  Pass 1  IDiag  1:
 RMSU=  2.78D-06    CP:  5.61D-01  1.62D+00  6.61D-01  8.52D-01  1.19D+00
                    CP:  1.07D+00  1.19D+00  1.16D+00  1.17D+00
 E= -460.888118117646     Delta-E=       -0.000000027209 Rises=F Damp=F
 DIIS: error= 3.81D-06 at cycle  10 NSaved=  10.
 NSaved=10 IEnMin=10 EnMin= -460.888118117646     IErMin=10 ErrMin= 3.81D-06
 ErrMax= 3.81D-06  0.00D+00 EMaxC= 1.00D-01 BMatC= 9.13D-10 BMatP= 6.10D-09
 IDIUse=1 WtCom= 1.00D+00 WtEn= 0.00D+00
 Coeff-Com:  0.705D-04-0.155D-03-0.415D-04 0.911D-03 0.675D-02 0.114D-02
 Coeff-Com: -0.520D-01-0.721D-01 0.219D+00 0.897D+00
 Coeff:      0.705D-04-0.155D-03-0.415D-04 0.911D-03 0.675D-02 0.114D-02
 Coeff:     -0.520D-01-0.721D-01 0.219D+00 0.897D+00
 Gap=     0.307 Goal=   None    Shift=    0.000
 RMSDP=1.67D-06 MaxDP=1.03D-04 DE=-2.72D-08 OVMax= 4.07D-05

 Cycle  11  Pass 1  IDiag  1:
 RMSU=  6.78D-07    CP:  5.61D-01  1.62D+00  6.61D-01  8.52D-01  1.19D+00
                    CP:  1.07D+00  1.18D+00  1.18D+00  1.28D+00  1.18D+00
 E= -460.888118120799     Delta-E=       -0.000000003153 Rises=F Damp=F
 DIIS: error= 1.13D-06 at cycle  11 NSaved=  11.
 NSaved=11 IEnMin=11 EnMin= -460.888118120799     IErMin=11 ErrMin= 1.13D-06
 ErrMax= 1.13D-06  0.00D+00 EMaxC= 1.00D-01 BMatC= 2.14D-10 BMatP= 9.13D-10
 IDIUse=1 WtCom= 1.00D+00 WtEn= 0.00D+00
 Coeff-Com:  0.133D-03-0.286D-03-0.221D-03 0.113D-03 0.407D-02 0.546D-02
 Coeff-Com: -0.963D-02-0.463D-01-0.760D-01 0.332D+00 0.791D+00
 Coeff:      0.133D-03-0.286D-03-0.221D-03 0.113D-03 0.407D-02 0.546D-02
 Coeff:     -0.963D-02-0.463D-01-0.760D-01 0.332D+00 0.791D+00
 Gap=     0.307 Goal=   None    Shift=    0.000
 RMSDP=5.94D-07 MaxDP=4.10D-05 DE=-3.15D-09 OVMax= 1.49D-05

 Cycle  12  Pass 1  IDiag  1:
 RMSU=  3.08D-07    CP:  5.61D-01  1.62D+00  6.61D-01  8.52D-01  1.19D+00
                    CP:  1.07D+00  1.18D+00  1.18D+00  1.30D+00  1.23D+00
                    CP:  1.12D+00
 E= -460.888118121376     Delta-E=       -0.000000000577 Rises=F Damp=F
 DIIS: error= 5.08D-07 at cycle  12 NSaved=  12.
 NSaved=12 IEnMin=12 EnMin= -460.888118121376     IErMin=12 ErrMin= 5.08D-07
 ErrMax= 5.08D-07  0.00D+00 EMaxC= 1.00D-01 BMatC= 1.47D-11 BMatP= 2.14D-10
 IDIUse=1 WtCom= 1.00D+00 WtEn= 0.00D+00
 Coeff-Com: -0.331D-05 0.786D-05-0.777D-05-0.126D-03-0.753D-03-0.145D-03
 Coeff-Com:  0.752D-02 0.943D-02-0.394D-01-0.116D+00-0.217D-01 0.116D+01
 Coeff:     -0.331D-05 0.786D-05-0.777D-05-0.126D-03-0.753D-03-0.145D-03
 Coeff:      0.752D-02 0.943D-02-0.394D-01-0.116D+00-0.217D-01 0.116D+01
 Gap=     0.307 Goal=   None    Shift=    0.000
 RMSDP=2.09D-07 MaxDP=1.32D-05 DE=-5.77D-10 OVMax= 8.43D-06

 Cycle  13  Pass 1  IDiag  1:
 RMSU=  9.94D-08    CP:  5.61D-01  1.62D+00  6.61D-01  8.52D-01  1.19D+00
                    CP:  1.07D+00  1.18D+00  1.18D+00  1.30D+00  1.25D+00
                    CP:  1.31D+00  1.31D+00
 E= -460.888118121468     Delta-E=       -0.000000000092 Rises=F Damp=F
 DIIS: error= 1.52D-07 at cycle  13 NSaved=  13.
 NSaved=13 IEnMin=13 EnMin= -460.888118121468     IErMin=13 ErrMin= 1.52D-07
 ErrMax= 1.52D-07  0.00D+00 EMaxC= 1.00D-01 BMatC= 4.07D-12 BMatP= 1.47D-11
 IDIUse=1 WtCom= 1.00D+00 WtEn= 0.00D+00
 Coeff-Com: -0.125D-04 0.271D-04 0.160D-04-0.589D-04-0.624D-03-0.554D-03
 Coeff-Com:  0.382D-02 0.845D-02-0.628D-02-0.721D-01-0.860D-01 0.450D+00
 Coeff-Com:  0.704D+00
 Coeff:     -0.125D-04 0.271D-04 0.160D-04-0.589D-04-0.624D-03-0.554D-03
 Coeff:      0.382D-02 0.845D-02-0.628D-02-0.721D-01-0.860D-01 0.450D+00
 Coeff:      0.704D+00
 Gap=     0.307 Goal=   None    Shift=    0.000
 RMSDP=6.93D-08 MaxDP=4.31D-06 DE=-9.21D-11 OVMax= 1.72D-06

 Cycle  14  Pass 1  IDiag  1:
 RMSU=  3.49D-08    CP:  5.61D-01  1.62D+00  6.61D-01  8.52D-01  1.19D+00
                    CP:  1.07D+00  1.18D+00  1.18D+00  1.30D+00  1.24D+00
                    CP:  1.33D+00  1.39D+00  1.19D+00
 E= -460.888118121474     Delta-E=       -0.000000000006 Rises=F Damp=F
 DIIS: error= 9.42D-08 at cycle  14 NSaved=  14.
 NSaved=14 IEnMin=14 EnMin= -460.888118121474     IErMin=14 ErrMin= 9.42D-08
 ErrMax= 9.42D-08  0.00D+00 EMaxC= 1.00D-01 BMatC= 5.56D-13 BMatP= 4.07D-12
 IDIUse=1 WtCom= 1.00D+00 WtEn= 0.00D+00
 Coeff-Com: -0.302D-05 0.640D-05 0.573D-05 0.472D-05-0.191D-04-0.137D-03
 Coeff-Com: -0.701D-03 0.490D-03 0.620D-02 0.408D-02-0.200D-01-0.132D+00
 Coeff-Com:  0.171D+00 0.972D+00
 Coeff:     -0.302D-05 0.640D-05 0.573D-05 0.472D-05-0.191D-04-0.137D-03
 Coeff:     -0.701D-03 0.490D-03 0.620D-02 0.408D-02-0.200D-01-0.132D+00
 Coeff:      0.171D+00 0.972D+00
 Gap=     0.307 Goal=   None    Shift=    0.000
 RMSDP=5.46D-08 MaxDP=3.29D-06 DE=-6.14D-12 OVMax= 1.39D-06

 Cycle  15  Pass 1  IDiag  1:
 RMSU=  2.56D-08    CP:  5.61D-01  1.62D+00  6.61D-01  8.52D-01  1.19D+00
                    CP:  1.07D+00  1.18D+00  1.18D+00  1.30D+00  1.24D+00
                    CP:  1.32D+00  1.39D+00  1.43D+00  1.23D+00
 E= -460.888118121480     Delta-E=       -0.000000000005 Rises=F Damp=F
 DIIS: error= 2.84D-08 at cycle  15 NSaved=  15.
 NSaved=15 IEnMin=15 EnMin= -460.888118121480     IErMin=15 ErrMin= 2.84D-08
 ErrMax= 2.84D-08  0.00D+00 EMaxC= 1.00D-01 BMatC= 1.11D-13 BMatP= 5.56D-13
 IDIUse=1 WtCom= 1.00D+00 WtEn= 0.00D+00
 Coeff-Com:  0.154D-06-0.417D-06 0.435D-06 0.807D-05 0.641D-04 0.158D-04
 Coeff-Com: -0.702D-03-0.722D-03 0.248D-02 0.915D-02 0.482D-02-0.948D-01
 Coeff-Com: -0.478D-01 0.328D+00 0.800D+00
 Coeff:      0.154D-06-0.417D-06 0.435D-06 0.807D-05 0.641D-04 0.158D-04
 Coeff:     -0.702D-03-0.722D-03 0.248D-02 0.915D-02 0.482D-02-0.948D-01
 Coeff:     -0.478D-01 0.328D+00 0.800D+00
 Gap=     0.307 Goal=   None    Shift=    0.000
 RMSDP=1.74D-08 MaxDP=1.31D-06 DE=-5.46D-12 OVMax= 4.24D-07

 Cycle  16  Pass 1  IDiag  1:
 RMSU=  7.12D-09    CP:  5.61D-01  1.62D+00  6.61D-01  8.52D-01  1.19D+00
                    CP:  1.07D+00  1.18D+00  1.18D+00  1.30D+00  1.24D+00
                    CP:  1.31D+00  1.39D+00  1.51D+00  1.37D+00  1.31D+00
 E= -460.888118121476     Delta-E=        0.000000000003 Rises=F Damp=F
 DIIS: error= 1.64D-08 at cycle  16 NSaved=  16.
 NSaved=16 IEnMin=15 EnMin= -460.888118121480     IErMin=16 ErrMin= 1.64D-08
 ErrMax= 1.64D-08  0.00D+00 EMaxC= 1.00D-01 BMatC= 2.10D-14 BMatP= 1.11D-13
 IDIUse=1 WtCom= 1.00D+00 WtEn= 0.00D+00
 Coeff-Com:  0.603D-06-0.131D-05-0.995D-06 0.141D-05 0.248D-04 0.379D-04
 Coeff-Com: -0.886D-04-0.323D-03-0.495D-03 0.222D-02 0.757D-02-0.476D-02
 Coeff-Com: -0.678D-01-0.967D-01 0.272D+00 0.888D+00
 Coeff:      0.603D-06-0.131D-05-0.995D-06 0.141D-05 0.248D-04 0.379D-04
 Coeff:     -0.886D-04-0.323D-03-0.495D-03 0.222D-02 0.757D-02-0.476D-02
 Coeff:     -0.678D-01-0.967D-01 0.272D+00 0.888D+00
 Gap=     0.307 Goal=   None    Shift=    0.000
 RMSDP=8.61D-09 MaxDP=8.00D-07 DE= 3.41D-12 OVMax= 2.24D-07

 SCF Done:  E(RwB97XD) =  -460.888118121     A.U. after   16 cycles
            NFock= 16  Conv=0.86D-08     -V/T= 1.9983
 KE= 4.616791869934D+02 PE=-2.200847839704D+03 EE= 7.150814636622D+02
 Leave Link  502 at Mon Nov 21 14:56:35 2022, MaxMem= 16106127360 cpu:             744.2 elap:              23.4
 (Enter /opt/ap/G16/B01/g16/l601.exe)
 Copying SCF densities to generalized density rwf, IOpCl= 0 IROHF=0.

 **********************************************************************

            Population analysis using the SCF Density.

 **********************************************************************

 Orbital symmetries:
       Occupied  (A) (A) (A) (A) (A) (A) (A) (A) (A) (A) (A) (A)
                 (A) (A) (A) (A) (A) (A) (A) (A) (A) (A) (A) (A)
                 (A) (A) (A) (A) (A) (A) (A) (A) (A) (A) (A) (A)
                 (A) (A)
       Virtual   (A) (A) (A) (A) (A) (A) (A) (A) (A) (A) (A) (A)
                 (A) (A) (A) (A) (A) (A) (A) (A) (A) (A) (A) (A)
                 (A) (A) (A) (A) (A) (A) (A) (A) (A) (A) (A) (A)
                 (A) (A) (A) (A) (A) (A) (A) (A) (A) (A) (A) (A)
                 (A) (A) (A) (A) (A) (A) (A) (A) (A) (A) (A) (A)
                 (A) (A) (A) (A) (A) (A) (A) (A) (A) (A) (A) (A)
                 (A) (A) (A) (A) (A) (A) (A) (A) (A) (A) (A) (A)
                 (A) (A) (A) (A) (A) (A) (A) (A) (A) (A) (A) (A)
                 (A) (A) (A) (A) (A) (A) (A) (A) (A) (A) (A) (A)
                 (A) (A) (A) (A) (A) (A) (A) (A) (A) (A) (A) (A)
                 (A) (A) (A) (A) (A) (A) (A) (A) (A) (A) (A) (A)
                 (A) (A) (A) (A) (A) (A) (A) (A) (A) (A) (A) (A)
                 (A) (A) (A) (A) (A) (A) (A) (A) (A) (A) (A) (A)
                 (A) (A) (A) (A) (A) (A) (A) (A) (A) (A) (A) (A)
                 (A) (A) (A) (A) (A) (A) (A) (A) (A) (A) (A) (A)
                 (A) (A) (A) (A) (A) (A) (A) (A) (A) (A) (A) (A)
                 (A) (A) (A) (A) (A) (A) (A) (A) (A) (A) (A) (A)
                 (A) (A) (A) (A) (A) (A) (A) (A) (A) (A) (A) (A)
                 (A) (A) (A) (A) (A) (A) (A) (A) (A) (A) (A) (A)
                 (A) (A) (A) (A) (A) (A) (A) (A) (A) (A) (A) (A)
                 (A) (A) (A) (A) (A) (A) (A) (A) (A) (A) (A) (A)
                 (A) (A) (A) (A) (A) (A)
 The electronic state is 1-A.
 Alpha  occ. eigenvalues --  -19.26014 -10.34966 -10.29939 -10.29800 -10.27894
 Alpha  occ. eigenvalues --  -10.27397 -10.27317 -10.27187 -10.27038 -10.26772
 Alpha  occ. eigenvalues --  -10.26664  -1.19615  -0.98962  -0.94428  -0.88679
 Alpha  occ. eigenvalues --   -0.86409  -0.84517  -0.75412  -0.73768  -0.72456
 Alpha  occ. eigenvalues --   -0.67413  -0.64670  -0.61592  -0.60422  -0.55774
 Alpha  occ. eigenvalues --   -0.54964  -0.52802  -0.52389  -0.51559  -0.48650
 Alpha  occ. eigenvalues --   -0.47891  -0.45383  -0.43639  -0.42445  -0.41102
 Alpha  occ. eigenvalues --   -0.35945  -0.32864  -0.29104
 Alpha virt. eigenvalues --    0.01640   0.03913   0.04321   0.04688   0.04989
 Alpha virt. eigenvalues --    0.06282   0.06516   0.08359   0.08736   0.09117
 Alpha virt. eigenvalues --    0.10295   0.11496   0.12105   0.12981   0.13836
 Alpha virt. eigenvalues --    0.14969   0.15038   0.15524   0.15947   0.16314
 Alpha virt. eigenvalues --    0.16644   0.17162   0.17515   0.17891   0.18339
 Alpha virt. eigenvalues --    0.18729   0.19035   0.19226   0.20007   0.20667
 Alpha virt. eigenvalues --    0.21748   0.21822   0.22374   0.22563   0.22950
 Alpha virt. eigenvalues --    0.24648   0.25773   0.26002   0.26163   0.26968
 Alpha virt. eigenvalues --    0.27403   0.28796   0.29102   0.29538   0.30022
 Alpha virt. eigenvalues --    0.30980   0.31548   0.31861   0.32433   0.32751
 Alpha virt. eigenvalues --    0.33876   0.34753   0.34898   0.35250   0.35463
 Alpha virt. eigenvalues --    0.36050   0.36906   0.37731   0.38692   0.39327
 Alpha virt. eigenvalues --    0.39991   0.40906   0.41667   0.42594   0.43192
 Alpha virt. eigenvalues --    0.44029   0.44560   0.47024   0.47329   0.47913
 Alpha virt. eigenvalues --    0.50515   0.57162   0.58168   0.59851   0.61145
 Alpha virt. eigenvalues --    0.61866   0.62386   0.65068   0.65749   0.65820
 Alpha virt. eigenvalues --    0.66689   0.67442   0.68024   0.68529   0.70113
 Alpha virt. eigenvalues --    0.70464   0.70871   0.71639   0.71918   0.72599
 Alpha virt. eigenvalues --    0.74311   0.75488   0.77002   0.78491   0.81058
 Alpha virt. eigenvalues --    0.81930   0.82883   0.84219   0.86426   0.87379
 Alpha virt. eigenvalues --    0.89214   0.90111   0.91260   0.92281   0.93177
 Alpha virt. eigenvalues --    0.95514   0.96129   0.97123   0.99433   1.00512
 Alpha virt. eigenvalues --    1.01712   1.02103   1.04273   1.04735   1.05847
 Alpha virt. eigenvalues --    1.06448   1.06535   1.09591   1.12015   1.12654
 Alpha virt. eigenvalues --    1.13884   1.14336   1.18669   1.19472   1.20006
 Alpha virt. eigenvalues --    1.20475   1.22813   1.23525   1.24074   1.24354
 Alpha virt. eigenvalues --    1.27658   1.32833   1.34747   1.42893   1.46024
 Alpha virt. eigenvalues --    1.48491   1.55903   1.57377   1.58665   1.59521
 Alpha virt. eigenvalues --    1.61586   1.62329   1.63028   1.65062   1.69214
 Alpha virt. eigenvalues --    1.69919   1.70653   1.70864   1.73404   1.75889
 Alpha virt. eigenvalues --    1.76619   1.79541   1.80754   1.80858   1.84270
 Alpha virt. eigenvalues --    1.89590   1.90148   1.91970   1.92524   1.93350
 Alpha virt. eigenvalues --    1.95814   1.97293   1.99562   1.99833   2.03255
 Alpha virt. eigenvalues --    2.03980   2.05402   2.07726   2.08668   2.09421
 Alpha virt. eigenvalues --    2.10014   2.11731   2.12993   2.16024   2.19204
 Alpha virt. eigenvalues --    2.24474   2.25944   2.28097   2.30757   2.34608
 Alpha virt. eigenvalues --    2.37262   2.39345   2.41215   2.47132   2.50997
 Alpha virt. eigenvalues --    2.52926   2.53279   2.53481   2.56366   2.57919
 Alpha virt. eigenvalues --    2.66555   2.67503   2.72496   2.73814   2.76061
 Alpha virt. eigenvalues --    2.80511   2.81361   2.84139   2.88360   2.88643
 Alpha virt. eigenvalues --    2.92838   2.93740   2.95570   2.98963   3.01339
 Alpha virt. eigenvalues --    3.02686   3.03547   3.04519   3.06567   3.07182
 Alpha virt. eigenvalues --    3.08397   3.11703   3.17649   3.18460   3.19458
 Alpha virt. eigenvalues --    3.22080   3.23617   3.27567   3.33414   3.35386
 Alpha virt. eigenvalues --    3.38604   3.40862   3.48430   3.48791   3.53192
 Alpha virt. eigenvalues --    3.55671   3.61047   3.73929   3.77129   3.79000
 Alpha virt. eigenvalues --    3.83947   3.88757   3.90495   3.99559   4.15934
 Alpha virt. eigenvalues --    4.27965   4.43350   4.44511   4.45788   4.52176
 Alpha virt. eigenvalues --    4.57333   4.61896   4.94199   4.97300   5.20896
 Alpha virt. eigenvalues --    5.61158   6.17730  23.80169  24.06254  24.15419
 Alpha virt. eigenvalues --   24.17294  24.21949  24.26127  24.41174  24.44119
 Alpha virt. eigenvalues --   24.51699  24.53327  50.18895
          Condensed to atoms (all electrons):
               1          2          3          4          5          6
     1  C   24.984723  -6.410794  -3.568431  -4.520676  -1.727979  -0.359647
     2  C   -6.410794  22.315853  -2.289727   0.597151  -3.184890  -5.040160
     3  C   -3.568431  -2.289727  10.564725   2.064108   0.072066  -0.375619
     4  C   -4.520676   0.597151   2.064108   9.131920  -0.318039  -0.765144
     5  C   -1.727979  -3.184890   0.072066  -0.318039   9.223866   2.408180
     6  C   -0.359647  -5.040160  -0.375619  -0.765144   2.408180  11.480721
     7  C   -1.992280   0.366527   0.432868  -0.537749   0.090561  -0.137100
     8  O    0.068720  -0.217165   0.210391  -0.020380  -0.007200   0.211312
     9  C    1.261775  -0.925046  -0.818011   0.041300  -0.051199   0.419409
    10  H   -0.152474   0.077559   0.055046   0.494451   0.019128  -0.059712
    11  C   -0.496672   0.230224   0.299327  -0.011139   0.114411  -1.199040
    12  H    0.007104  -0.077003  -0.056630   0.008001   0.492920   0.079113
    13  C   -1.338022   0.933581  -0.351769   0.300903  -0.920912  -0.958553
    14  H   -0.165941  -0.025670  -0.066847  -0.006364   0.033794   0.411646
    15  H   -0.123570   0.025568  -0.068458   0.030984  -0.028741  -0.006630
    16  H   -0.242035   0.007818   0.143005   0.014356  -0.016870  -0.036473
    17  H    0.145792  -0.057405  -0.012490  -0.126065   0.021409   0.012126
    18  H   -0.026322   0.040895  -0.011350   0.021407  -0.059509  -0.035753
    19  H    0.046029  -0.039220   0.019963  -0.018552  -0.021726  -0.034014
               7          8          9         10         11         12
     1  C   -1.992280   0.068720   1.261775  -0.152474  -0.496672   0.007104
     2  C    0.366527  -0.217165  -0.925046   0.077559   0.230224  -0.077003
     3  C    0.432868   0.210391  -0.818011   0.055046   0.299327  -0.056630
     4  C   -0.537749  -0.020380   0.041300   0.494451  -0.011139   0.008001
     5  C    0.090561  -0.007200  -0.051199   0.019128   0.114411   0.492920
     6  C   -0.137100   0.211312   0.419409  -0.059712  -1.199040   0.079113
     7  C    7.557734  -0.422027   0.032595   0.031235   0.074403  -0.010491
     8  O   -0.422027   8.042168   0.039169  -0.000837   0.001281   0.000655
     9  C    0.032595   0.039169   6.129334  -0.127440  -0.315949   0.056373
    10  H    0.031235  -0.000837  -0.127440   0.501047   0.048244  -0.003566
    11  C    0.074403   0.001281  -0.315949   0.048244   6.485307  -0.130749
    12  H   -0.010491   0.000655   0.056373  -0.003566  -0.130749   0.505059
    13  C   -0.143819   0.130124   0.015628  -0.001052   0.670696  -0.001231
    14  H    0.003598   0.018884  -0.002762   0.000571   0.027930   0.000503
    15  H    0.588987  -0.040053  -0.079146   0.003383   0.000085  -0.001067
    16  H    0.158299   0.232524  -0.008448   0.000865   0.004121  -0.000258
    17  H   -0.132571   0.003674   0.487241  -0.021698  -0.000496   0.002261
    18  H   -0.002394  -0.000049   0.001609   0.000945   0.470168  -0.019080
    19  H    0.008085   0.000081  -0.001691  -0.000446  -0.057694   0.000733
              13         14         15         16         17         18
     1  C   -1.338022  -0.165941  -0.123570  -0.242035   0.145792  -0.026322
     2  C    0.933581  -0.025670   0.025568   0.007818  -0.057405   0.040895
     3  C   -0.351769  -0.066847  -0.068458   0.143005  -0.012490  -0.011350
     4  C    0.300903  -0.006364   0.030984   0.014356  -0.126065   0.021407
     5  C   -0.920912   0.033794  -0.028741  -0.016870   0.021409  -0.059509
     6  C   -0.958553   0.411646  -0.006630  -0.036473   0.012126  -0.035753
     7  C   -0.143819   0.003598   0.588987   0.158299  -0.132571  -0.002394
     8  O    0.130124   0.018884  -0.040053   0.232524   0.003674  -0.000049
     9  C    0.015628  -0.002762  -0.079146  -0.008448   0.487241   0.001609
    10  H   -0.001052   0.000571   0.003383   0.000865  -0.021698   0.000945
    11  C    0.670696   0.027930   0.000085   0.004121  -0.000496   0.470168
    12  H   -0.001231   0.000503  -0.001067  -0.000258   0.002261  -0.019080
    13  C    7.445806   0.123408   0.015047   0.006396  -0.004588  -0.052210
    14  H    0.123408   0.599094   0.002235  -0.008359  -0.000441   0.000089
    15  H    0.015047   0.002235   0.496051   0.005124  -0.022971  -0.000013
    16  H    0.006396  -0.008359   0.005124   0.475816  -0.001381  -0.000021
    17  H   -0.004588  -0.000441  -0.022971  -0.001381   0.514468  -0.000033
    18  H   -0.052210   0.000089  -0.000013  -0.000021  -0.000033   0.504936
    19  H    0.440016  -0.021788   0.000046   0.000759  -0.000046  -0.013531
              19
     1  C    0.046029
     2  C   -0.039220
     3  C    0.019963
     4  C   -0.018552
     5  C   -0.021726
     6  C   -0.034014
     7  C    0.008085
     8  O    0.000081
     9  C   -0.001691
    10  H   -0.000446
    11  C   -0.057694
    12  H    0.000733
    13  C    0.440016
    14  H   -0.021788
    15  H    0.000046
    16  H    0.000759
    17  H   -0.000046
    18  H   -0.013531
    19  H    0.502505
 Mulliken charges:
               1
     1  C    0.610699
     2  C   -0.328094
     3  C   -0.242169
     4  C   -0.380472
     5  C   -0.139271
     6  C   -0.014662
     7  C    0.033540
     8  O   -0.251270
     9  C   -0.154741
    10  H    0.134752
    11  C   -0.214457
    12  H    0.147353
    13  C   -0.309449
    14  H    0.076420
    15  H    0.203138
    16  H    0.264762
    17  H    0.193214
    18  H    0.180215
    19  H    0.190490
 Sum of Mulliken charges =  -0.00000
 Mulliken charges with hydrogens summed into heavy atoms:
               1
     1  C    0.610699
     2  C   -0.328094
     3  C   -0.242169
     4  C   -0.245719
     5  C    0.008082
     6  C    0.061759
     7  C    0.236678
     8  O    0.013492
     9  C    0.038474
    11  C   -0.034242
    13  C   -0.118959
 Electronic spatial extent (au):  <R**2>=           1502.4121
 Charge=             -0.0000 electrons
 Dipole moment (field-independent basis, Debye):
    X=             -1.2020    Y=             -0.5609    Z=              0.8791  Tot=              1.5913
 Quadrupole moment (field-independent basis, Debye-Ang):
   XX=            -57.3473   YY=            -56.7639   ZZ=            -67.1108
   XY=             -3.9309   XZ=              1.0082   YZ=              2.6888
 Traceless Quadrupole moment (field-independent basis, Debye-Ang):
   XX=              3.0600   YY=              3.6434   ZZ=             -6.7035
   XY=             -3.9309   XZ=              1.0082   YZ=              2.6888
 Octapole moment (field-independent basis, Debye-Ang**2):
  XXX=             -4.8106  YYY=              4.8598  ZZZ=              0.6710  XYY=             -7.8264
  XXY=             -9.0559  XXZ=              0.6088  XZZ=              4.0082  YZZ=              6.2922
  YYZ=              7.7853  XYZ=              3.1216
 Hexadecapole moment (field-independent basis, Debye-Ang**3):
 XXXX=          -1101.3180 YYYY=           -647.0301 ZZZZ=            -77.1682 XXXY=            -21.4573
 XXXZ=              0.2524 YYYX=            -11.5486 YYYZ=             21.3834 ZZZX=              0.9202
 ZZZY=              2.5631 XXYY=           -317.4455 XXZZ=           -235.7699 YYZZ=           -137.8767
 XXYZ=              2.6294 YYXZ=              9.0098 ZZXY=              8.7147
 N-N= 5.631990709268D+02 E-N=-2.200847840044D+03  KE= 4.616791869934D+02
 No NMR shielding tensors so no spin-rotation constants.
 Leave Link  601 at Mon Nov 21 14:56:35 2022, MaxMem= 16106127360 cpu:               3.8 elap:               0.1
 (Enter /opt/ap/G16/B01/g16/l9999.exe)
 1\1\GINC-N10\SP\RwB97XD\6-311++G(d,p)\C10H8O1\ROOT\21-Nov-2022\0\\#P w
 B97XD/6-311++G(d,p) scf=maxcycle=512\\_conf045.gjf nmol_natom 1_19\\0,
 1\C\C,1,1.40879539\C,1,1.42289824,2,117.24956717\C,2,1.41887971,1,119.
 07594714,3,0.16510261,0\C,2,1.42227783,1,117.46262303,3,-179.44443577,
 0\C,1,1.42440336,2,119.00293897,4,179.73740031,0\C,3,1.35510367,1,122.
 33979448,2,-0.36120568,0\O,3,1.37615658,1,115.04370777,2,-179.5931286,
 0\C,4,1.34577659,2,121.30210156,1,0.17277764,0\H,4,0.93023405,2,119.33
 469462,1,-179.75965297,0\C,5,1.34486794,2,122.06073707,1,-0.32265162,0
 \H,5,0.92957893,2,118.96449269,1,179.64671542,0\C,6,1.35980576,1,121.1
 112438,2,0.11625163,0\H,6,0.92999796,1,119.43671105,2,-179.87270235,0\
 H,7,0.93052813,3,120.28038366,1,-179.76477098,0\H,8,0.81991994,3,109.4
 8785721,1,45.,0\H,9,0.93027331,4,119.71917791,2,179.60144151,0\H,11,0.
 92987565,5,119.70372857,2,-179.69197286,0\H,13,0.93032717,6,120.145246
 92,1,179.85241379,0\\Version=ES64L-G16RevB.01\State=1-A\HF=-460.888118
 1\RMSD=8.608e-09\Dipole=-0.4154011,0.3399518,0.3221931\Quadrupole=3.53
 55958,-4.933403,1.3978072,0.3146241,2.7527183,-2.1684864\PG=C01 [X(C10
 H8O1)]\\@


 IN SO FAR AS QUANTUM MECHANICS IS CORRECT, CHEMICAL 
 QUESTIONS ARE PROBLEMS IN APPLIED MATHEMATICS.

                    -- EYRING, WALTER, & KIMBALL, 1944
 Job cpu time:       0 days  0 hours 13 minutes  3.0 seconds.
 Elapsed time:       0 days  0 hours  0 minutes 24.7 seconds.
 File lengths (MBytes):  RWF=     51 Int=      0 D2E=      0 Chk=      6 Scr=      1
 Normal termination of Gaussian 16 at Mon Nov 21 14:56:35 2022.
