 Entering Gaussian System, Link 0=g16
 Input=_conf052.gjf
 Output=_conf052.log
 Initial command:
 /opt/ap/G16/B01/g16/l1.exe "/tmp2/scr/Gau-7819.inp" -scrdir="/tmp2/scr/"
 Entering Link 1 = /opt/ap/G16/B01/g16/l1.exe PID=      7820.
  
 Copyright (c) 1988-2017, Gaussian, Inc.  All Rights Reserved.
  
 This is part of the Gaussian(R) 16 program.  It is based on
 the Gaussian(R) 09 system (copyright 2009, Gaussian, Inc.),
 the Gaussian(R) 03 system (copyright 2003, Gaussian, Inc.),
 the Gaussian(R) 98 system (copyright 1998, Gaussian, Inc.),
 the Gaussian(R) 94 system (copyright 1995, Gaussian, Inc.),
 the Gaussian 92(TM) system (copyright 1992, Gaussian, Inc.),
 the Gaussian 90(TM) system (copyright 1990, Gaussian, Inc.),
 the Gaussian 88(TM) system (copyright 1988, Gaussian, Inc.),
 the Gaussian 86(TM) system (copyright 1986, Carnegie Mellon
 University), and the Gaussian 82(TM) system (copyright 1983,
 Carnegie Mellon University). Gaussian is a federally registered
 trademark of Gaussian, Inc.
  
 This software contains proprietary and confidential information,
 including trade secrets, belonging to Gaussian, Inc.
  
 This software is provided under written license and may be
 used, copied, transmitted, or stored only in accord with that
 written license.
  
 The following legend is applicable only to US Government
 contracts under FAR:
  
                    RESTRICTED RIGHTS LEGEND
  
 Use, reproduction and disclosure by the US Government is
 subject to restrictions as set forth in subparagraphs (a)
 and (c) of the Commercial Computer Software - Restricted
 Rights clause in FAR 52.227-19.
  
 Gaussian, Inc.
 340 Quinnipiac St., Bldg. 40, Wallingford CT 06492
  
  
 ---------------------------------------------------------------
 Warning -- This program may not be used in any manner that
 competes with the business of Gaussian, Inc. or will provide
 assistance to any competitor of Gaussian, Inc.  The licensee
 of this program is prohibited from giving any competitor of
 Gaussian, Inc. access to this program.  By using this program,
 the user acknowledges that Gaussian, Inc. is engaged in the
 business of creating and licensing software in the field of
 computational chemistry and represents and warrants to the
 licensee that it is not a competitor of Gaussian, Inc. and that
 it will not use this program in any manner prohibited above.
 ---------------------------------------------------------------
  

 Cite this work as:
 Gaussian 16, Revision B.01,
 M. J. Frisch, G. W. Trucks, H. B. Schlegel, G. E. Scuseria, 
 M. A. Robb, J. R. Cheeseman, G. Scalmani, V. Barone, 
 G. A. Petersson, H. Nakatsuji, X. Li, M. Caricato, A. V. Marenich, 
 J. Bloino, B. G. Janesko, R. Gomperts, B. Mennucci, H. P. Hratchian, 
 J. V. Ortiz, A. F. Izmaylov, J. L. Sonnenberg, D. Williams-Young, 
 F. Ding, F. Lipparini, F. Egidi, J. Goings, B. Peng, A. Petrone, 
 T. Henderson, D. Ranasinghe, V. G. Zakrzewski, J. Gao, N. Rega, 
 G. Zheng, W. Liang, M. Hada, M. Ehara, K. Toyota, R. Fukuda, 
 J. Hasegawa, M. Ishida, T. Nakajima, Y. Honda, O. Kitao, H. Nakai, 
 T. Vreven, K. Throssell, J. A. Montgomery, Jr., J. E. Peralta, 
 F. Ogliaro, M. J. Bearpark, J. J. Heyd, E. N. Brothers, K. N. Kudin, 
 V. N. Staroverov, T. A. Keith, R. Kobayashi, J. Normand, 
 K. Raghavachari, A. P. Rendell, J. C. Burant, S. S. Iyengar, 
 J. Tomasi, M. Cossi, J. M. Millam, M. Klene, C. Adamo, R. Cammi, 
 J. W. Ochterski, R. L. Martin, K. Morokuma, O. Farkas, 
 J. B. Foresman, and D. J. Fox, Gaussian, Inc., Wallingford CT, 2016.
 
 ******************************************
 Gaussian 16:  ES64L-G16RevB.01 20-Dec-2017
                21-Nov-2022 
 ******************************************
 %nprocshared=32
 Will use up to   32 processors via shared memory.
 %mem=120GB
 %chk=_conf052.chk
 ----------------------------------------
 #P wB97XD/6-311++G(d,p) scf=maxcycle=512
 ----------------------------------------
 1/38=1,172=1/1;
 2/12=2,17=6,18=5,40=1/2;
 3/5=4,6=6,7=1111,11=2,25=1,30=1,74=-58/1,2,3;
 4//1;
 5/5=2,7=512,38=5/2;
 6/7=2,8=2,9=2,10=2,28=1/1;
 99/5=1,9=1/99;
 Leave Link    1 at Mon Nov 21 14:56:57 2022, MaxMem= 16106127360 cpu:               1.6 elap:               0.1
 (Enter /opt/ap/G16/B01/g16/l101.exe)
 ----------------------------
 _conf052.gjf nmol_natom 1_19
 ----------------------------
 Symbolic Z-matrix:
 Charge =  0 Multiplicity = 1
 C
 C                    1     1.4088 
 C                    1     1.4229   2     117.24957 
 C                    2     1.41888  1     119.07595  3     0.1651   0
 C                    2     1.42228  1     117.46262  3    -179.44444  0
 C                    1     1.4244   2     119.00294  4     179.7374  0
 C                    3     1.3551   1     122.33979  2    -0.36121  0
 O                    3     1.37616  1     115.04371  2    -179.59313  0
 C                    4     1.34578  2     121.3021  1     0.17278  0
 H                    4     0.93023  2     119.33469  1    -179.75965  0
 C                    5     1.34487  2     122.06074  1    -0.32265  0
 H                    5     0.92958  2     118.96449  1     179.64672  0
 C                    6     1.35981  1     121.11124  2     0.11625  0
 H                    6     0.93     1     119.43671  2    -179.8727  0
 H                    7     0.93053  3     120.28038  1    -179.76477  0
 H                    8     0.81992  3     109.48786  1     80.      0
 H                    9     0.93027  4     119.71918  2     179.60144  0
 H                    11    0.92988  5     119.70373  2    -179.69197  0
 H                    13    0.93033  6     120.14525  1     179.85241  0
 
 ITRead=  0  0  0  0  0  0  0  0  0  0  0  0  0  0  0  0  0  0  0
 MicOpt= -1 -1 -1 -1 -1 -1 -1 -1 -1 -1 -1 -1 -1 -1 -1 -1 -1 -1 -1
 NAtoms=     19 NQM=       19 NQMF=       0 NMMI=      0 NMMIF=      0
                NMic=       0 NMicF=      0.
                    Isotopes and Nuclear Properties:
 (Nuclear quadrupole moments (NQMom) in fm**2, nuclear magnetic moments (NMagM)
  in nuclear magnetons)

  Atom         1           2           3           4           5           6           7           8           9          10
 IAtWgt=          12          12          12          12          12          12          12          16          12           1
 AtmWgt=  12.0000000  12.0000000  12.0000000  12.0000000  12.0000000  12.0000000  12.0000000  15.9949146  12.0000000   1.0078250
 NucSpn=           0           0           0           0           0           0           0           0           0           1
 AtZEff=  -0.0000000  -0.0000000  -0.0000000  -0.0000000  -0.0000000  -0.0000000  -0.0000000  -0.0000000  -0.0000000  -0.0000000
 NQMom=    0.0000000   0.0000000   0.0000000   0.0000000   0.0000000   0.0000000   0.0000000   0.0000000   0.0000000   0.0000000
 NMagM=    0.0000000   0.0000000   0.0000000   0.0000000   0.0000000   0.0000000   0.0000000   0.0000000   0.0000000   2.7928460
 AtZNuc=   6.0000000   6.0000000   6.0000000   6.0000000   6.0000000   6.0000000   6.0000000   8.0000000   6.0000000   1.0000000

  Atom        11          12          13          14          15          16          17          18          19
 IAtWgt=          12           1          12           1           1           1           1           1           1
 AtmWgt=  12.0000000   1.0078250  12.0000000   1.0078250   1.0078250   1.0078250   1.0078250   1.0078250   1.0078250
 NucSpn=           0           1           0           1           1           1           1           1           1
 AtZEff=  -0.0000000  -0.0000000  -0.0000000  -0.0000000  -0.0000000  -0.0000000  -0.0000000  -0.0000000  -0.0000000
 NQMom=    0.0000000   0.0000000   0.0000000   0.0000000   0.0000000   0.0000000   0.0000000   0.0000000   0.0000000
 NMagM=    0.0000000   2.7928460   0.0000000   2.7928460   2.7928460   2.7928460   2.7928460   2.7928460   2.7928460
 AtZNuc=   6.0000000   1.0000000   6.0000000   1.0000000   1.0000000   1.0000000   1.0000000   1.0000000   1.0000000
 Leave Link  101 at Mon Nov 21 14:56:57 2022, MaxMem= 16106127360 cpu:               5.5 elap:               0.2
 (Enter /opt/ap/G16/B01/g16/l202.exe)
                          Input orientation:                          
 ---------------------------------------------------------------------
 Center     Atomic      Atomic             Coordinates (Angstroms)
 Number     Number       Type             X           Y           Z
 ---------------------------------------------------------------------
      1          6           0        0.000000    0.000000    0.000000
      2          6           0        0.000000    0.000000    1.408795
      3          6           0        1.264986    0.000000   -0.651498
      4          6           0        1.240062    0.003573    2.098326
      5          6           0       -1.261945   -0.012237    2.064707
      6          6           0       -1.245741   -0.009299   -0.690628
      7          6           0        2.433644    0.007218    0.034427
      8          8           0        1.212032    0.008854   -2.026607
      9          6           0        2.409936    0.010412    1.433147
     10          1           0        1.244276    0.000184    3.028545
     11          6           0       -2.421000   -0.017057    1.382624
     12          1           0       -1.286266   -0.017488    2.993953
     13          6           0       -2.424704   -0.015738   -0.013076
     14          1           0       -1.252769   -0.011151   -1.620598
     15          1           0        3.245045    0.010306   -0.421097
     16          1           0        1.069861    0.772203   -2.289957
     17          1           0        3.210137    0.018260    1.907515
     18          1           0       -3.227740   -0.020753    1.845035
     19          1           0       -3.230632   -0.019714   -0.477804
 ---------------------------------------------------------------------
                    Distance matrix (angstroms):
                    1          2          3          4          5
     1  C    0.000000
     2  C    1.408795   0.000000
     3  C    1.422898   2.417643   0.000000
     4  C    2.437363   1.418880   2.749940   0.000000
     5  C    2.419849   1.422278   3.709892   2.502283   0.000000
     6  C    1.424403   2.441216   2.511049   3.735994   2.755385
     7  C    2.433898   2.794917   1.355104   2.384184   4.216609
     8  O    2.361406   3.642951   1.376157   4.125032   4.781198
     9  C    2.803892   2.410081   2.378396   1.345777   3.725867
    10  H    3.274188   2.042501   3.680101   0.930234   2.685197
    11  C    2.788042   2.421201   4.210040   3.730420   1.344868
    12  H    3.258610   2.041448   4.449551   2.680471   0.929579
    13  C    2.424790   2.810899   3.744548   4.229527   2.381009
    14  H    2.048388   3.278228   2.697845   4.477144   3.685317
    15  H    3.272269   3.725443   1.993445   3.219859   5.147104
    16  H    2.642878   3.927043   1.821790   4.458340   5.001576
    17  H    3.734157   3.248697   3.214420   1.979348   4.474947
    18  H    3.717915   3.257153   5.139815   4.475043   1.978050
    19  H    3.265834   3.741207   4.499015   5.159854   3.215610
                    6          7          8          9         10
     6  C    0.000000
     7  C    3.750180   0.000000
     8  O    2.797466   2.395871   0.000000
     9  C    4.227858   1.398925   3.661267   0.000000
    10  H    4.475771   3.221706   5.055262   1.975895   0.000000
    11  C    2.383205   5.038431   4.982213   4.831278   4.017910
    12  H    3.684813   4.753644   5.607870   4.012331   2.530840
    13  C    1.359806   4.858634   4.157013   5.046383   4.765829
    14  H    0.929998   4.040926   2.498097   4.768777   5.277300
    15  H    4.498910   0.930528   2.590522   2.033624   3.987882
    16  H    2.920721   2.801404   0.819920   4.029595   5.377071
    17  H    5.158096   2.027689   4.412463   0.930273   2.263105
    18  H    3.218391   5.943934   5.890846   5.652788   4.626021
    19  H    1.996295   5.687453   4.704984   5.955556   5.685040
                   11         12         13         14         15
    11  C    0.000000
    12  H    1.970788   0.000000
    13  C    1.395705   3.215317   0.000000
    14  H    3.222443   4.614677   1.989366   0.000000
    15  H    5.946277   5.674162   5.684470   4.655061   0.000000
    16  H    5.128049   5.839062   4.244646   2.540924   2.967246
    17  H    5.655657   4.625934   5.953256   5.689110   2.328887
    18  H    0.929876   2.255958   2.024221   3.988887   6.858080
    19  H    2.028966   3.979153   0.930327   2.284293   6.475995
                   16         17         18         19
    16  H    0.000000
    17  H    4.771581   0.000000
    18  H    6.016337   6.438299   0.000000
    19  H    4.733421   6.868384   2.322841   0.000000
 Stoichiometry    C10H8O
 Framework group  C1[X(C10H8O)]
 Deg. of freedom    51
 Full point group                 C1      NOp   1
 Largest Abelian subgroup         C1      NOp   1
 Largest concise Abelian subgroup C1      NOp   1
                         Standard orientation:                         
 ---------------------------------------------------------------------
 Center     Atomic      Atomic             Coordinates (Angstroms)
 Number     Number       Type             X           Y           Z
 ---------------------------------------------------------------------
      1          6           0       -0.028090    0.427272   -0.013087
      2          6           0       -0.347556   -0.944667    0.007643
      3          6           0        1.351611    0.774718   -0.031735
      4          6           0        0.703809   -1.897467    0.012479
      5          6           0       -1.725421   -1.297255    0.014099
      6          6           0       -1.084796    1.382357   -0.023624
      7          6           0        2.334291   -0.158324   -0.022797
      8          8           0        1.611958    2.125978   -0.042737
      9          6           0        1.994053   -1.515032    0.001148
     10          1           0        0.496937   -2.804348    0.022747
     11          6           0       -2.699596   -0.370103    0.007545
     12          1           0       -1.959883   -2.196739    0.022696
     13          6           0       -2.386693    0.989939   -0.011646
     14          1           0       -0.880775    2.289568   -0.039109
     15          1           0        3.227839    0.101226   -0.032224
     16          1           0        1.541090    2.424394    0.717653
     17          1           0        2.665876   -2.158445    0.010244
     18          1           0       -3.590174   -0.637426    0.016433
     19          1           0       -3.066240    1.625313   -0.016687
 ---------------------------------------------------------------------
 Rotational constants (GHZ):           2.0034676           1.1546485           0.7337124
 Leave Link  202 at Mon Nov 21 14:56:57 2022, MaxMem= 16106127360 cpu:               0.4 elap:               0.0
 (Enter /opt/ap/G16/B01/g16/l301.exe)
 Standard basis: 6-311++G(d,p) (5D, 7F)
 Ernie: Thresh=  0.10000D-02 Tol=  0.10000D-05 Strict=F.
 There are   309 symmetry adapted cartesian basis functions of A   symmetry.
 There are   298 symmetry adapted basis functions of A   symmetry.
   298 basis functions,   468 primitive gaussians,   309 cartesian basis functions
    38 alpha electrons       38 beta electrons
       nuclear repulsion energy       562.8068285467 Hartrees.
 IExCor= 4639 DFT=T Ex+Corr=wB97XD ExCW=0 ScaHFX=  1.000000
 ScaDFX=  1.000000  1.000000  1.000000  1.000000 ScalE2=  1.000000  1.000000
 IRadAn=      5 IRanWt=     -1 IRanGd=            0 ICorTp=0 IEmpDi=121
 HFx  wShort=  0.000000 wLong=  0.200000 cFull=  0.222036 cShort=  0.000000 cLong=  0.777964
 DFx  wShort=  0.000000 wLong=  0.200000 cFull=  0.000000 cShort=  0.000000 cLong=  1.000000
 NAtoms=   19 NActive=   19 NUniq=   19 SFac= 1.00D+00 NAtFMM=   60 NAOKFM=F Big=F
 Integral buffers will be    131072 words long.
 Raffenetti 2 integral format.
 Two-electron integral symmetry is turned on.
 R6Disp:  Grimme-D2 Dispersion energy=       -0.0103905475 Hartrees.
 Nuclear repulsion after empirical dispersion term =      562.7964379992 Hartrees.
 Leave Link  301 at Mon Nov 21 14:56:57 2022, MaxMem= 16106127360 cpu:               1.2 elap:               0.0
 (Enter /opt/ap/G16/B01/g16/l302.exe)
 NPDir=0 NMtPBC=     1 NCelOv=     1 NCel=       1 NClECP=     1 NCelD=      1
         NCelK=      1 NCelE2=     1 NClLst=     1 CellRange=     0.0.
 One-electron integrals computed using PRISM.
 One-electron integral symmetry used in STVInt
 NBasis=   298 RedAO= T EigKep=  1.34D-06  NBF=   298
 NBsUse=   296 1.00D-06 EigRej=  6.37D-07 NBFU=   296
 Precomputing XC quadrature grid using
 IXCGrd= 4 IRadAn=           5 IRanWt=          -1 IRanGd=           0 AccXCQ= 0.00D+00.
 Generated NRdTot=       0 NPtTot=           0 NUsed=           0 NTot=          32
 NSgBfM=   309   309   309   309   309 MxSgAt=    19 MxSgA2=    19.
 Leave Link  302 at Mon Nov 21 14:56:57 2022, MaxMem= 16106127360 cpu:               6.4 elap:               0.2
 (Enter /opt/ap/G16/B01/g16/l303.exe)
 DipDrv:  MaxL=1.
 Leave Link  303 at Mon Nov 21 14:56:57 2022, MaxMem= 16106127360 cpu:               1.4 elap:               0.1
 (Enter /opt/ap/G16/B01/g16/l401.exe)
 ExpMin= 3.60D-02 ExpMax= 8.59D+03 ExpMxC= 1.30D+03 IAcc=3 IRadAn=         5 AccDes= 0.00D+00
 Harris functional with IExCor= 4639 and IRadAn=       5 diagonalized for initial guess.
 HarFok:  IExCor= 4639 AccDes= 0.00D+00 IRadAn=         5 IDoV= 1 UseB2=F ITyADJ=14
 ICtDFT=  3500011 ScaDFX=  1.000000  1.000000  1.000000  1.000000
 FoFCou: FMM=F IPFlag=           0 FMFlag=      100000 FMFlg1=           0
         NFxFlg=           0 DoJE=T BraDBF=F KetDBF=T FulRan=T
         wScrn=  0.000000 ICntrl=       500 IOpCl=  0 I1Cent=   200000004 NGrid=           0
         NMat0=    1 NMatS0=      1 NMatT0=    0 NMatD0=    1 NMtDS0=    0 NMtDT0=    0
 Petite list used in FoFCou.
 Harris En= -440.610181794907    
 JPrj=0 DoOrth=F DoCkMO=F.
 Leave Link  401 at Mon Nov 21 14:56:58 2022, MaxMem= 16106127360 cpu:              16.2 elap:               0.5
 (Enter /opt/ap/G16/B01/g16/l502.exe)
 Integral symmetry usage will be decided dynamically.
 Closed shell SCF:
 Using DIIS extrapolation, IDIIS=  1040.
 NGot= 16106127360 LenX= 16105923535 LenY= 16105827613
 Requested convergence on RMS density matrix=1.00D-08 within 512 cycles.
 Requested convergence on MAX density matrix=1.00D-06.
 Requested convergence on             energy=1.00D-06.
 No special actions if energy rises.
 Fock matrices will be formed incrementally for  20 cycles.

 Cycle   1  Pass 1  IDiag  1:
 FoFJK:  IHMeth= 1 ICntrl=       0 DoSepK=T KAlg= 0 I1Cent=           0 FoldK=F
 IRaf=         1 NMat=       1 IRICut=       1 DoRegI=T DoRafI=F ISym2E= 0 IDoP0=0 IntGTp=1.
 FoFCou: FMM=F IPFlag=           0 FMFlag=      100000 FMFlg1=           0
         NFxFlg=           0 DoJE=T BraDBF=F KetDBF=F FulRan=T
         wScrn=  0.000000 ICntrl=       500 IOpCl=  0 I1Cent=           0 NGrid=           0
         NMat0=    1 NMatS0=      1 NMatT0=    0 NMatD0=    1 NMtDS0=    0 NMtDT0=    0
 Symmetry not used in FoFCou.
 E= -460.754941280009    
 DIIS: error= 5.54D-02 at cycle   1 NSaved=   1.
 NSaved= 1 IEnMin= 1 EnMin= -460.754941280009     IErMin= 1 ErrMin= 5.54D-02
 ErrMax= 5.54D-02  0.00D+00 EMaxC= 1.00D-01 BMatC= 9.51D-01 BMatP= 9.51D-01
 IDIUse=3 WtCom= 4.46D-01 WtEn= 5.54D-01
 Coeff-Com:  0.100D+01
 Coeff-En:   0.100D+01
 Coeff:      0.100D+01
 Gap=     0.323 Goal=   None    Shift=    0.000
 GapD=    0.323 DampG=1.000 DampE=0.500 DampFc=0.5000 IDamp=-1.
 Damping current iteration by 5.00D-01
 RMSDP=4.18D-02 MaxDP=4.53D+00              OVMax= 1.24D-01

 Cycle   2  Pass 1  IDiag  1:
 RMSU=  8.74D-03    CP:  8.11D-01
 E= -460.819765945980     Delta-E=       -0.064824665971 Rises=F Damp=T
 DIIS: error= 2.74D-02 at cycle   2 NSaved=   2.
 NSaved= 2 IEnMin= 2 EnMin= -460.819765945980     IErMin= 2 ErrMin= 2.74D-02
 ErrMax= 2.74D-02  0.00D+00 EMaxC= 1.00D-01 BMatC= 2.08D-01 BMatP= 9.51D-01
 IDIUse=3 WtCom= 7.26D-01 WtEn= 2.74D-01
 Coeff-Com: -0.737D+00 0.174D+01
 Coeff-En:   0.000D+00 0.100D+01
 Coeff:     -0.536D+00 0.154D+01
 Gap=     0.334 Goal=   None    Shift=    0.000
 RMSDP=2.27D-02 MaxDP=2.40D+00 DE=-6.48D-02 OVMax= 1.25D-01

 Cycle   3  Pass 1  IDiag  1:
 RMSU=  7.40D-03    CP:  6.03D-01  1.55D+00
 E= -460.862420211960     Delta-E=       -0.042654265980 Rises=F Damp=F
 DIIS: error= 8.09D-03 at cycle   3 NSaved=   3.
 NSaved= 3 IEnMin= 3 EnMin= -460.862420211960     IErMin= 3 ErrMin= 8.09D-03
 ErrMax= 8.09D-03  0.00D+00 EMaxC= 1.00D-01 BMatC= 2.60D-02 BMatP= 2.08D-01
 IDIUse=3 WtCom= 9.19D-01 WtEn= 8.09D-02
 Coeff-Com: -0.369D+00 0.784D+00 0.585D+00
 Coeff-En:   0.000D+00 0.000D+00 0.100D+01
 Coeff:     -0.339D+00 0.720D+00 0.619D+00
 Gap=     0.315 Goal=   None    Shift=    0.000
 RMSDP=4.78D-03 MaxDP=4.15D-01 DE=-4.27D-02 OVMax= 5.56D-02

 Cycle   4  Pass 1  IDiag  1:
 RMSU=  1.43D-03    CP:  5.74D-01  1.66D+00  5.45D-01
 E= -460.886084626759     Delta-E=       -0.023664414800 Rises=F Damp=F
 DIIS: error= 1.64D-03 at cycle   4 NSaved=   4.
 NSaved= 4 IEnMin= 4 EnMin= -460.886084626759     IErMin= 4 ErrMin= 1.64D-03
 ErrMax= 1.64D-03  0.00D+00 EMaxC= 1.00D-01 BMatC= 7.18D-04 BMatP= 2.60D-02
 IDIUse=3 WtCom= 9.84D-01 WtEn= 1.64D-02
 Coeff-Com: -0.132D+00 0.281D+00 0.280D+00 0.571D+00
 Coeff-En:   0.000D+00 0.000D+00 0.000D+00 0.100D+01
 Coeff:     -0.130D+00 0.276D+00 0.275D+00 0.578D+00
 Gap=     0.311 Goal=   None    Shift=    0.000
 RMSDP=6.72D-04 MaxDP=4.30D-02 DE=-2.37D-02 OVMax= 7.48D-03

 Cycle   5  Pass 1  IDiag  1:
 RMSU=  3.84D-04    CP:  5.77D-01  1.67D+00  6.01D-01  8.40D-01
 E= -460.886773108752     Delta-E=       -0.000688481992 Rises=F Damp=F
 DIIS: error= 2.21D-04 at cycle   5 NSaved=   5.
 NSaved= 5 IEnMin= 5 EnMin= -460.886773108752     IErMin= 5 ErrMin= 2.21D-04
 ErrMax= 2.21D-04  0.00D+00 EMaxC= 1.00D-01 BMatC= 1.61D-05 BMatP= 7.18D-04
 IDIUse=3 WtCom= 9.98D-01 WtEn= 2.21D-03
 Coeff-Com:  0.460D-02-0.954D-02 0.132D-01 0.146D+00 0.846D+00
 Coeff-En:   0.000D+00 0.000D+00 0.000D+00 0.000D+00 0.100D+01
 Coeff:      0.459D-02-0.951D-02 0.132D-01 0.145D+00 0.846D+00
 Gap=     0.311 Goal=   None    Shift=    0.000
 RMSDP=1.79D-04 MaxDP=7.10D-03 DE=-6.88D-04 OVMax= 2.35D-03

 Cycle   6  Pass 1  IDiag  1:
 RMSU=  1.44D-04    CP:  5.77D-01  1.67D+00  6.02D-01  8.87D-01  1.11D+00
 E= -460.886793616135     Delta-E=       -0.000020507383 Rises=F Damp=F
 DIIS: error= 1.33D-04 at cycle   6 NSaved=   6.
 NSaved= 6 IEnMin= 6 EnMin= -460.886793616135     IErMin= 6 ErrMin= 1.33D-04
 ErrMax= 1.33D-04  0.00D+00 EMaxC= 1.00D-01 BMatC= 3.20D-06 BMatP= 1.61D-05
 IDIUse=3 WtCom= 9.99D-01 WtEn= 1.33D-03
 Coeff-Com:  0.158D-01-0.337D-01-0.226D-01-0.361D-02 0.331D+00 0.713D+00
 Coeff-En:   0.000D+00 0.000D+00 0.000D+00 0.000D+00 0.000D+00 0.100D+01
 Coeff:      0.158D-01-0.337D-01-0.226D-01-0.361D-02 0.331D+00 0.714D+00
 Gap=     0.311 Goal=   None    Shift=    0.000
 RMSDP=8.69D-05 MaxDP=4.30D-03 DE=-2.05D-05 OVMax= 8.87D-04

 Cycle   7  Pass 1  IDiag  1:
 RMSU=  4.33D-05    CP:  5.76D-01  1.67D+00  5.99D-01  9.04D-01  1.19D+00
                    CP:  1.05D+00
 E= -460.886798041648     Delta-E=       -0.000004425513 Rises=F Damp=F
 DIIS: error= 4.62D-05 at cycle   7 NSaved=   7.
 NSaved= 7 IEnMin= 7 EnMin= -460.886798041648     IErMin= 7 ErrMin= 4.62D-05
 ErrMax= 4.62D-05  0.00D+00 EMaxC= 1.00D-01 BMatC= 2.12D-07 BMatP= 3.20D-06
 IDIUse=1 WtCom= 1.00D+00 WtEn= 0.00D+00
 Coeff-Com:  0.139D-02-0.295D-02-0.261D-02-0.132D-01-0.495D-01 0.844D-01
 Coeff-Com:  0.982D+00
 Coeff:      0.139D-02-0.295D-02-0.261D-02-0.132D-01-0.495D-01 0.844D-01
 Coeff:      0.982D+00
 Gap=     0.311 Goal=   None    Shift=    0.000
 RMSDP=2.05D-05 MaxDP=1.90D-03 DE=-4.43D-06 OVMax= 5.44D-04

 Cycle   8  Pass 1  IDiag  1:
 RMSU=  1.43D-05    CP:  5.76D-01  1.67D+00  5.99D-01  9.04D-01  1.21D+00
                    CP:  1.11D+00  1.02D+00
 E= -460.886798720414     Delta-E=       -0.000000678767 Rises=F Damp=F
 DIIS: error= 2.87D-05 at cycle   8 NSaved=   8.
 NSaved= 8 IEnMin= 8 EnMin= -460.886798720414     IErMin= 8 ErrMin= 2.87D-05
 ErrMax= 2.87D-05  0.00D+00 EMaxC= 1.00D-01 BMatC= 6.97D-08 BMatP= 2.12D-07
 IDIUse=1 WtCom= 1.00D+00 WtEn= 0.00D+00
 Coeff-Com: -0.189D-02 0.406D-02 0.275D-02-0.457D-02-0.753D-01-0.878D-01
 Coeff-Com:  0.410D+00 0.753D+00
 Coeff:     -0.189D-02 0.406D-02 0.275D-02-0.457D-02-0.753D-01-0.878D-01
 Coeff:      0.410D+00 0.753D+00
 Gap=     0.311 Goal=   None    Shift=    0.000
 RMSDP=1.38D-05 MaxDP=1.51D-03 DE=-6.79D-07 OVMax= 2.01D-04

 Cycle   9  Pass 1  IDiag  1:
 RMSU=  8.60D-06    CP:  5.76D-01  1.67D+00  5.98D-01  9.05D-01  1.21D+00
                    CP:  1.15D+00  1.10D+00  9.12D-01
 E= -460.886798866508     Delta-E=       -0.000000146094 Rises=F Damp=F
 DIIS: error= 8.71D-06 at cycle   9 NSaved=   9.
 NSaved= 9 IEnMin= 9 EnMin= -460.886798866508     IErMin= 9 ErrMin= 8.71D-06
 ErrMax= 8.71D-06  0.00D+00 EMaxC= 1.00D-01 BMatC= 4.99D-09 BMatP= 6.97D-08
 IDIUse=1 WtCom= 1.00D+00 WtEn= 0.00D+00
 Coeff-Com: -0.729D-03 0.156D-02 0.125D-02 0.117D-02-0.114D-01-0.384D-01
 Coeff-Com: -0.506D-01 0.140D+00 0.957D+00
 Coeff:     -0.729D-03 0.156D-02 0.125D-02 0.117D-02-0.114D-01-0.384D-01
 Coeff:     -0.506D-01 0.140D+00 0.957D+00
 Gap=     0.311 Goal=   None    Shift=    0.000
 RMSDP=4.77D-06 MaxDP=3.40D-04 DE=-1.46D-07 OVMax= 1.10D-04

 Cycle  10  Pass 1  IDiag  1:
 RMSU=  3.22D-06    CP:  5.76D-01  1.67D+00  5.99D-01  9.04D-01  1.21D+00
                    CP:  1.16D+00  1.09D+00  1.01D+00  1.05D+00
 E= -460.886798888173     Delta-E=       -0.000000021665 Rises=F Damp=F
 DIIS: error= 4.57D-06 at cycle  10 NSaved=  10.
 NSaved=10 IEnMin=10 EnMin= -460.886798888173     IErMin=10 ErrMin= 4.57D-06
 ErrMax= 4.57D-06  0.00D+00 EMaxC= 1.00D-01 BMatC= 7.42D-10 BMatP= 4.99D-09
 IDIUse=1 WtCom= 1.00D+00 WtEn= 0.00D+00
 Coeff-Com:  0.288D-04-0.660D-04 0.107D-04 0.862D-03 0.573D-02 0.712D-03
 Coeff-Com: -0.514D-01-0.670D-01 0.216D+00 0.895D+00
 Coeff:      0.288D-04-0.660D-04 0.107D-04 0.862D-03 0.573D-02 0.712D-03
 Coeff:     -0.514D-01-0.670D-01 0.216D+00 0.895D+00
 Gap=     0.311 Goal=   None    Shift=    0.000
 RMSDP=1.78D-06 MaxDP=1.42D-04 DE=-2.17D-08 OVMax= 3.65D-05

 Cycle  11  Pass 1  IDiag  1:
 RMSU=  7.04D-07    CP:  5.76D-01  1.67D+00  5.99D-01  9.04D-01  1.21D+00
                    CP:  1.15D+00  1.08D+00  1.02D+00  1.12D+00  1.16D+00
 E= -460.886798890735     Delta-E=       -0.000000002561 Rises=F Damp=F
 DIIS: error= 1.01D-06 at cycle  11 NSaved=  11.
 NSaved=11 IEnMin=11 EnMin= -460.886798890735     IErMin=11 ErrMin= 1.01D-06
 ErrMax= 1.01D-06  0.00D+00 EMaxC= 1.00D-01 BMatC= 1.84D-10 BMatP= 7.42D-10
 IDIUse=1 WtCom= 1.00D+00 WtEn= 0.00D+00
 Coeff-Com:  0.125D-03-0.269D-03-0.196D-03 0.157D-03 0.392D-02 0.583D-02
 Coeff-Com: -0.108D-01-0.484D-01-0.705D-01 0.351D+00 0.769D+00
 Coeff:      0.125D-03-0.269D-03-0.196D-03 0.157D-03 0.392D-02 0.583D-02
 Coeff:     -0.108D-01-0.484D-01-0.705D-01 0.351D+00 0.769D+00
 Gap=     0.311 Goal=   None    Shift=    0.000
 RMSDP=5.67D-07 MaxDP=2.06D-05 DE=-2.56D-09 OVMax= 1.44D-05

 Cycle  12  Pass 1  IDiag  1:
 RMSU=  2.84D-07    CP:  5.76D-01  1.67D+00  5.99D-01  9.04D-01  1.21D+00
                    CP:  1.15D+00  1.08D+00  1.03D+00  1.13D+00  1.24D+00
                    CP:  1.11D+00
 E= -460.886798891214     Delta-E=       -0.000000000480 Rises=F Damp=F
 DIIS: error= 5.21D-07 at cycle  12 NSaved=  12.
 NSaved=12 IEnMin=12 EnMin= -460.886798891214     IErMin=12 ErrMin= 5.21D-07
 ErrMax= 5.21D-07  0.00D+00 EMaxC= 1.00D-01 BMatC= 1.48D-11 BMatP= 1.84D-10
 IDIUse=1 WtCom= 1.00D+00 WtEn= 0.00D+00
 Coeff-Com:  0.840D-05-0.173D-04-0.247D-04-0.113D-03-0.440D-03 0.288D-03
 Coeff-Com:  0.659D-02 0.606D-02-0.442D-01-0.948D-01 0.343D-01 0.109D+01
 Coeff:      0.840D-05-0.173D-04-0.247D-04-0.113D-03-0.440D-03 0.288D-03
 Coeff:      0.659D-02 0.606D-02-0.442D-01-0.948D-01 0.343D-01 0.109D+01
 Gap=     0.311 Goal=   None    Shift=    0.000
 RMSDP=3.04D-07 MaxDP=1.32D-05 DE=-4.80D-10 OVMax= 7.88D-06

 Cycle  13  Pass 1  IDiag  1:
 RMSU=  1.03D-07    CP:  5.76D-01  1.67D+00  5.99D-01  9.04D-01  1.21D+00
                    CP:  1.15D+00  1.07D+00  1.03D+00  1.11D+00  1.28D+00
                    CP:  1.27D+00  1.39D+00
 E= -460.886798891288     Delta-E=       -0.000000000074 Rises=F Damp=F
 DIIS: error= 1.59D-07 at cycle  13 NSaved=  13.
 NSaved=13 IEnMin=13 EnMin= -460.886798891288     IErMin=13 ErrMin= 1.59D-07
 ErrMax= 1.59D-07  0.00D+00 EMaxC= 1.00D-01 BMatC= 5.29D-12 BMatP= 1.48D-11
 IDIUse=1 WtCom= 1.00D+00 WtEn= 0.00D+00
 Coeff-Com: -0.118D-04 0.258D-04 0.140D-04-0.694D-04-0.669D-03-0.633D-03
 Coeff-Com:  0.445D-02 0.960D-02-0.841D-02-0.847D-01-0.920D-01 0.489D+00
 Coeff-Com:  0.683D+00
 Coeff:     -0.118D-04 0.258D-04 0.140D-04-0.694D-04-0.669D-03-0.633D-03
 Coeff:      0.445D-02 0.960D-02-0.841D-02-0.847D-01-0.920D-01 0.489D+00
 Coeff:      0.683D+00
 Gap=     0.311 Goal=   None    Shift=    0.000
 RMSDP=7.36D-08 MaxDP=4.58D-06 DE=-7.40D-11 OVMax= 2.02D-06

 Cycle  14  Pass 1  IDiag  1:
 RMSU=  4.09D-08    CP:  5.76D-01  1.67D+00  5.99D-01  9.04D-01  1.21D+00
                    CP:  1.15D+00  1.07D+00  1.03D+00  1.11D+00  1.28D+00
                    CP:  1.31D+00  1.51D+00  1.09D+00
 E= -460.886798891300     Delta-E=       -0.000000000011 Rises=F Damp=F
 DIIS: error= 1.11D-07 at cycle  14 NSaved=  14.
 NSaved=14 IEnMin=14 EnMin= -460.886798891300     IErMin=14 ErrMin= 1.11D-07
 ErrMax= 1.11D-07  0.00D+00 EMaxC= 1.00D-01 BMatC= 4.90D-13 BMatP= 5.29D-12
 IDIUse=1 WtCom= 1.00D+00 WtEn= 0.00D+00
 Coeff-Com: -0.387D-05 0.827D-05 0.684D-05 0.119D-05-0.585D-04-0.187D-03
 Coeff-Com: -0.394D-03 0.907D-03 0.639D-02-0.357D-03-0.271D-01-0.112D+00
 Coeff-Com:  0.121D+00 0.101D+01
 Coeff:     -0.387D-05 0.827D-05 0.684D-05 0.119D-05-0.585D-04-0.187D-03
 Coeff:     -0.394D-03 0.907D-03 0.639D-02-0.357D-03-0.271D-01-0.112D+00
 Coeff:      0.121D+00 0.101D+01
 Gap=     0.311 Goal=   None    Shift=    0.000
 RMSDP=5.17D-08 MaxDP=2.65D-06 DE=-1.14D-11 OVMax= 1.32D-06

 Cycle  15  Pass 1  IDiag  1:
 RMSU=  2.09D-08    CP:  5.76D-01  1.67D+00  5.99D-01  9.04D-01  1.21D+00
                    CP:  1.15D+00  1.07D+00  1.03D+00  1.11D+00  1.28D+00
                    CP:  1.31D+00  1.54D+00  1.23D+00  1.23D+00
 E= -460.886798891296     Delta-E=        0.000000000004 Rises=F Damp=F
 DIIS: error= 3.05D-08 at cycle  15 NSaved=  15.
 NSaved=15 IEnMin=14 EnMin= -460.886798891300     IErMin=15 ErrMin= 3.05D-08
 ErrMax= 3.05D-08  0.00D+00 EMaxC= 1.00D-01 BMatC= 8.72D-14 BMatP= 4.90D-13
 IDIUse=1 WtCom= 1.00D+00 WtEn= 0.00D+00
 Coeff-Com:  0.537D-07-0.190D-06 0.581D-06 0.774D-05 0.583D-04 0.201D-04
 Coeff-Com: -0.675D-03-0.839D-03 0.245D-02 0.927D-02 0.455D-02-0.878D-01
 Coeff-Com: -0.611D-01 0.293D+00 0.841D+00
 Coeff:      0.537D-07-0.190D-06 0.581D-06 0.774D-05 0.583D-04 0.201D-04
 Coeff:     -0.675D-03-0.839D-03 0.245D-02 0.927D-02 0.455D-02-0.878D-01
 Coeff:     -0.611D-01 0.293D+00 0.841D+00
 Gap=     0.311 Goal=   None    Shift=    0.000
 RMSDP=1.58D-08 MaxDP=1.05D-06 DE= 3.98D-12 OVMax= 4.29D-07

 Cycle  16  Pass 1  IDiag  1:
 RMSU=  7.03D-09    CP:  5.76D-01  1.67D+00  5.99D-01  9.04D-01  1.21D+00
                    CP:  1.15D+00  1.07D+00  1.03D+00  1.11D+00  1.28D+00
                    CP:  1.31D+00  1.53D+00  1.27D+00  1.36D+00  1.27D+00
 E= -460.886798891312     Delta-E=       -0.000000000016 Rises=F Damp=F
 DIIS: error= 1.42D-08 at cycle  16 NSaved=  16.
 NSaved=16 IEnMin=16 EnMin= -460.886798891312     IErMin=16 ErrMin= 1.42D-08
 ErrMax= 1.42D-08  0.00D+00 EMaxC= 1.00D-01 BMatC= 1.61D-14 BMatP= 8.72D-14
 IDIUse=1 WtCom= 1.00D+00 WtEn= 0.00D+00
 Coeff-Com:  0.611D-06-0.133D-05-0.900D-06 0.205D-05 0.273D-04 0.445D-04
 Coeff-Com: -0.134D-03-0.397D-03-0.324D-03 0.304D-02 0.766D-02-0.862D-02
 Coeff-Com: -0.528D-01-0.919D-01 0.261D+00 0.883D+00
 Coeff:      0.611D-06-0.133D-05-0.900D-06 0.205D-05 0.273D-04 0.445D-04
 Coeff:     -0.134D-03-0.397D-03-0.324D-03 0.304D-02 0.766D-02-0.862D-02
 Coeff:     -0.528D-01-0.919D-01 0.261D+00 0.883D+00
 Gap=     0.311 Goal=   None    Shift=    0.000
 RMSDP=7.31D-09 MaxDP=5.06D-07 DE=-1.64D-11 OVMax= 1.80D-07

 SCF Done:  E(RwB97XD) =  -460.886798891     A.U. after   16 cycles
            NFock= 16  Conv=0.73D-08     -V/T= 1.9983
 KE= 4.616940020068D+02 PE=-2.200233669325D+03 EE= 7.148564304279D+02
 Leave Link  502 at Mon Nov 21 14:57:20 2022, MaxMem= 16106127360 cpu:             718.5 elap:              22.5
 (Enter /opt/ap/G16/B01/g16/l601.exe)
 Copying SCF densities to generalized density rwf, IOpCl= 0 IROHF=0.

 **********************************************************************

            Population analysis using the SCF Density.

 **********************************************************************

 Orbital symmetries:
       Occupied  (A) (A) (A) (A) (A) (A) (A) (A) (A) (A) (A) (A)
                 (A) (A) (A) (A) (A) (A) (A) (A) (A) (A) (A) (A)
                 (A) (A) (A) (A) (A) (A) (A) (A) (A) (A) (A) (A)
                 (A) (A)
       Virtual   (A) (A) (A) (A) (A) (A) (A) (A) (A) (A) (A) (A)
                 (A) (A) (A) (A) (A) (A) (A) (A) (A) (A) (A) (A)
                 (A) (A) (A) (A) (A) (A) (A) (A) (A) (A) (A) (A)
                 (A) (A) (A) (A) (A) (A) (A) (A) (A) (A) (A) (A)
                 (A) (A) (A) (A) (A) (A) (A) (A) (A) (A) (A) (A)
                 (A) (A) (A) (A) (A) (A) (A) (A) (A) (A) (A) (A)
                 (A) (A) (A) (A) (A) (A) (A) (A) (A) (A) (A) (A)
                 (A) (A) (A) (A) (A) (A) (A) (A) (A) (A) (A) (A)
                 (A) (A) (A) (A) (A) (A) (A) (A) (A) (A) (A) (A)
                 (A) (A) (A) (A) (A) (A) (A) (A) (A) (A) (A) (A)
                 (A) (A) (A) (A) (A) (A) (A) (A) (A) (A) (A) (A)
                 (A) (A) (A) (A) (A) (A) (A) (A) (A) (A) (A) (A)
                 (A) (A) (A) (A) (A) (A) (A) (A) (A) (A) (A) (A)
                 (A) (A) (A) (A) (A) (A) (A) (A) (A) (A) (A) (A)
                 (A) (A) (A) (A) (A) (A) (A) (A) (A) (A) (A) (A)
                 (A) (A) (A) (A) (A) (A) (A) (A) (A) (A) (A) (A)
                 (A) (A) (A) (A) (A) (A) (A) (A) (A) (A) (A) (A)
                 (A) (A) (A) (A) (A) (A) (A) (A) (A) (A) (A) (A)
                 (A) (A) (A) (A) (A) (A) (A) (A) (A) (A) (A) (A)
                 (A) (A) (A) (A) (A) (A) (A) (A) (A) (A) (A) (A)
                 (A) (A) (A) (A) (A) (A) (A) (A) (A) (A) (A) (A)
                 (A) (A) (A) (A) (A) (A)
 The electronic state is 1-A.
 Alpha  occ. eigenvalues --  -19.25388 -10.34611 -10.29765 -10.29537 -10.27306
 Alpha  occ. eigenvalues --  -10.27171 -10.27058 -10.26990 -10.26928 -10.26846
 Alpha  occ. eigenvalues --  -10.26788  -1.19119  -0.98786  -0.94243  -0.88470
 Alpha  occ. eigenvalues --   -0.86242  -0.84198  -0.75143  -0.73477  -0.72460
 Alpha  occ. eigenvalues --   -0.66726  -0.64565  -0.61600  -0.60207  -0.55496
 Alpha  occ. eigenvalues --   -0.54797  -0.52677  -0.52474  -0.51356  -0.48520
 Alpha  occ. eigenvalues --   -0.47692  -0.44757  -0.43231  -0.42257  -0.39483
 Alpha  occ. eigenvalues --   -0.36372  -0.32712  -0.29379
 Alpha virt. eigenvalues --    0.01756   0.03966   0.04477   0.04767   0.04908
 Alpha virt. eigenvalues --    0.06253   0.06460   0.08309   0.08723   0.08924
 Alpha virt. eigenvalues --    0.10262   0.11525   0.12094   0.13024   0.13756
 Alpha virt. eigenvalues --    0.14972   0.15071   0.15597   0.16100   0.16612
 Alpha virt. eigenvalues --    0.16682   0.17096   0.17515   0.17967   0.18384
 Alpha virt. eigenvalues --    0.18566   0.19109   0.19371   0.20105   0.20688
 Alpha virt. eigenvalues --    0.21646   0.21849   0.22436   0.22569   0.22892
 Alpha virt. eigenvalues --    0.24486   0.25691   0.26045   0.26282   0.26940
 Alpha virt. eigenvalues --    0.27507   0.28735   0.29160   0.29558   0.30146
 Alpha virt. eigenvalues --    0.31180   0.31855   0.31980   0.32598   0.32856
 Alpha virt. eigenvalues --    0.33959   0.34442   0.34994   0.35406   0.35945
 Alpha virt. eigenvalues --    0.36567   0.37754   0.38415   0.39293   0.39785
 Alpha virt. eigenvalues --    0.40877   0.41689   0.41952   0.43134   0.43356
 Alpha virt. eigenvalues --    0.44409   0.45040   0.47092   0.48223   0.48312
 Alpha virt. eigenvalues --    0.51524   0.57615   0.58325   0.60068   0.61392
 Alpha virt. eigenvalues --    0.62042   0.62667   0.65592   0.65853   0.66451
 Alpha virt. eigenvalues --    0.66775   0.67482   0.68231   0.68812   0.70417
 Alpha virt. eigenvalues --    0.70460   0.71059   0.71512   0.72311   0.72804
 Alpha virt. eigenvalues --    0.75079   0.75589   0.76550   0.79219   0.81591
 Alpha virt. eigenvalues --    0.82652   0.83226   0.86150   0.86772   0.87489
 Alpha virt. eigenvalues --    0.89249   0.91137   0.91690   0.92753   0.93464
 Alpha virt. eigenvalues --    0.96206   0.96459   0.97436   0.99741   1.00657
 Alpha virt. eigenvalues --    1.02020   1.02225   1.04613   1.04844   1.05852
 Alpha virt. eigenvalues --    1.06604   1.06625   1.10124   1.11142   1.12713
 Alpha virt. eigenvalues --    1.13992   1.15155   1.18454   1.19520   1.20262
 Alpha virt. eigenvalues --    1.21216   1.23408   1.24046   1.24393   1.24910
 Alpha virt. eigenvalues --    1.27876   1.36505   1.37198   1.43581   1.46512
 Alpha virt. eigenvalues --    1.49022   1.51950   1.57210   1.57996   1.59317
 Alpha virt. eigenvalues --    1.61419   1.62615   1.63052   1.63116   1.69774
 Alpha virt. eigenvalues --    1.70295   1.70960   1.71177   1.73179   1.74477
 Alpha virt. eigenvalues --    1.76882   1.78506   1.79967   1.80930   1.85029
 Alpha virt. eigenvalues --    1.90107   1.90647   1.91931   1.92668   1.93385
 Alpha virt. eigenvalues --    1.95823   1.97613   1.98106   2.00044   2.03545
 Alpha virt. eigenvalues --    2.04010   2.05476   2.07778   2.08692   2.09352
 Alpha virt. eigenvalues --    2.10471   2.11952   2.12835   2.16508   2.19854
 Alpha virt. eigenvalues --    2.24657   2.26534   2.28830   2.30588   2.34937
 Alpha virt. eigenvalues --    2.36954   2.39479   2.44310   2.46606   2.51162
 Alpha virt. eigenvalues --    2.52613   2.53426   2.55106   2.56506   2.57443
 Alpha virt. eigenvalues --    2.66387   2.69874   2.72076   2.75846   2.78341
 Alpha virt. eigenvalues --    2.80807   2.81443   2.85143   2.88564   2.90298
 Alpha virt. eigenvalues --    2.92813   2.93965   2.94948   2.99146   3.01467
 Alpha virt. eigenvalues --    3.02215   3.03800   3.04624   3.06642   3.07320
 Alpha virt. eigenvalues --    3.08562   3.11467   3.17772   3.18570   3.19384
 Alpha virt. eigenvalues --    3.22310   3.24356   3.28149   3.34014   3.35833
 Alpha virt. eigenvalues --    3.38741   3.47724   3.48217   3.52539   3.54659
 Alpha virt. eigenvalues --    3.56117   3.58607   3.74136   3.77408   3.79046
 Alpha virt. eigenvalues --    3.84086   3.89030   3.91006   3.99795   4.12272
 Alpha virt. eigenvalues --    4.28682   4.43557   4.44636   4.46475   4.52304
 Alpha virt. eigenvalues --    4.57648   4.62441   4.94601   4.97422   5.28088
 Alpha virt. eigenvalues --    5.59750   6.15956  23.80367  24.07739  24.15715
 Alpha virt. eigenvalues --   24.17477  24.22040  24.26669  24.41268  24.44524
 Alpha virt. eigenvalues --   24.51710  24.53563  50.20590
          Condensed to atoms (all electrons):
               1          2          3          4          5          6
     1  C   22.062251  -4.627310  -2.844363  -3.466724  -2.433524  -0.316723
     2  C   -4.627310  21.154108  -2.452331  -0.390753  -2.439900  -4.706786
     3  C   -2.844363  -2.452331  10.327550   2.144837  -0.014666  -0.346218
     4  C   -3.466724  -0.390753   2.144837   8.820088  -0.245840  -0.528990
     5  C   -2.433524  -2.439900  -0.014666  -0.245840   9.416687   1.964269
     6  C   -0.316723  -4.706786  -0.346218  -0.528990   1.964269  12.029793
     7  C   -1.626125   0.588826   0.086581  -0.670688   0.218217  -0.257526
     8  O   -0.193199  -0.159077   0.291686  -0.025188   0.008689   0.149102
     9  C    0.906503  -0.645758  -0.763270   0.123114  -0.158066   0.384818
    10  H   -0.142573   0.048616   0.054649   0.491016   0.038592  -0.054020
    11  C   -0.524240  -0.276696   0.282282  -0.065085   0.426059  -1.162862
    12  H   -0.052437  -0.048994  -0.048911   0.020193   0.503135   0.069414
    13  C   -1.099472   0.326078  -0.507345   0.287650  -1.120215  -1.534396
    14  H   -0.014119  -0.022912  -0.091281  -0.018550   0.020177   0.415638
    15  H   -0.027302  -0.019491  -0.072121   0.012856  -0.034270   0.008067
    16  H   -0.139116  -0.040456   0.033881   0.014100  -0.019290   0.028079
    17  H    0.085317  -0.022554  -0.008503  -0.108895   0.021057   0.006068
    18  H   -0.019806   0.030442  -0.010580   0.020507  -0.056659  -0.029387
    19  H    0.039987  -0.035207   0.014386  -0.018397  -0.022288  -0.054493
               7          8          9         10         11         12
     1  C   -1.626125  -0.193199   0.906503  -0.142573  -0.524240  -0.052437
     2  C    0.588826  -0.159077  -0.645758   0.048616  -0.276696  -0.048994
     3  C    0.086581   0.291686  -0.763270   0.054649   0.282282  -0.048911
     4  C   -0.670688  -0.025188   0.123114   0.491016  -0.065085   0.020193
     5  C    0.218217   0.008689  -0.158066   0.038592   0.426059   0.503135
     6  C   -0.257526   0.149102   0.384818  -0.054020  -1.162862   0.069414
     7  C    7.246108  -0.206082   0.160627   0.031316   0.087088  -0.002464
     8  O   -0.206082   8.021541   0.017361  -0.000624   0.004842   0.000622
     9  C    0.160627   0.017361   6.064094  -0.127546  -0.320500   0.048191
    10  H    0.031316  -0.000624  -0.127546   0.499050   0.046919  -0.002960
    11  C    0.087088   0.004842  -0.320500   0.046919   6.615519  -0.116279
    12  H   -0.002464   0.000622   0.048191  -0.002960  -0.116279   0.504584
    13  C   -0.274575   0.107257   0.070732  -0.001130   0.791171  -0.004371
    14  H   -0.003047   0.013812   0.006649   0.000370   0.019487   0.001492
    15  H    0.528804  -0.033179  -0.058312   0.002807  -0.001729  -0.000679
    16  H    0.082557   0.286295  -0.000773   0.000536   0.003885  -0.000254
    17  H   -0.104433   0.002199   0.470540  -0.020587   0.000829   0.001497
    18  H   -0.003192  -0.000121   0.002479   0.000782   0.460239  -0.018420
    19  H    0.007854   0.000821  -0.001905  -0.000411  -0.047464   0.000347
              13         14         15         16         17         18
     1  C   -1.099472  -0.014119  -0.027302  -0.139116   0.085317  -0.019806
     2  C    0.326078  -0.022912  -0.019491  -0.040456  -0.022554   0.030442
     3  C   -0.507345  -0.091281  -0.072121   0.033881  -0.008503  -0.010580
     4  C    0.287650  -0.018550   0.012856   0.014100  -0.108895   0.020507
     5  C   -1.120215   0.020177  -0.034270  -0.019290   0.021057  -0.056659
     6  C   -1.534396   0.415638   0.008067   0.028079   0.006068  -0.029387
     7  C   -0.274575  -0.003047   0.528804   0.082557  -0.104433  -0.003192
     8  O    0.107257   0.013812  -0.033179   0.286295   0.002199  -0.000121
     9  C    0.070732   0.006649  -0.058312  -0.000773   0.470540   0.002479
    10  H   -0.001130   0.000370   0.002807   0.000536  -0.020587   0.000782
    11  C    0.791171   0.019487  -0.001729   0.003885   0.000829   0.460239
    12  H   -0.004371   0.001492  -0.000679  -0.000254   0.001497  -0.018420
    13  C    8.845088   0.054326   0.017884   0.058525  -0.004410  -0.046147
    14  H    0.054326   0.519127   0.001097  -0.004883   0.000100   0.000244
    15  H    0.017884   0.001097   0.492370   0.005133  -0.018572  -0.000029
    16  H    0.058525  -0.004883   0.005133   0.414911  -0.001034   0.000056
    17  H   -0.004410   0.000100  -0.018572  -0.001034   0.508028   0.000003
    18  H   -0.046147   0.000244  -0.000029   0.000056   0.000003   0.503184
    19  H    0.456671  -0.017404   0.000085   0.000415  -0.000061  -0.012587
              19
     1  C    0.039987
     2  C   -0.035207
     3  C    0.014386
     4  C   -0.018397
     5  C   -0.022288
     6  C   -0.054493
     7  C    0.007854
     8  O    0.000821
     9  C   -0.001905
    10  H   -0.000411
    11  C   -0.047464
    12  H    0.000347
    13  C    0.456671
    14  H   -0.017404
    15  H    0.000085
    16  H    0.000415
    17  H   -0.000061
    18  H   -0.012587
    19  H    0.500474
 Mulliken charges:
               1
     1  C    0.432973
     2  C   -0.259847
     3  C   -0.076263
     4  C   -0.395250
     5  C   -0.072168
     6  C   -0.063848
     7  C    0.110153
     8  O   -0.286756
     9  C   -0.178977
    10  H    0.135197
    11  C   -0.223464
    12  H    0.146294
    13  C   -0.423320
    14  H    0.119678
    15  H    0.196579
    16  H    0.277434
    17  H    0.193413
    18  H    0.178993
    19  H    0.189179
 Sum of Mulliken charges =  -0.00000
 Mulliken charges with hydrogens summed into heavy atoms:
               1
     1  C    0.432973
     2  C   -0.259847
     3  C   -0.076263
     4  C   -0.260053
     5  C    0.074126
     6  C    0.055830
     7  C    0.306732
     8  O   -0.009322
     9  C    0.014436
    11  C   -0.044471
    13  C   -0.234141
 Electronic spatial extent (au):  <R**2>=           1504.7498
 Charge=             -0.0000 electrons
 Dipole moment (field-independent basis, Debye):
    X=             -0.5308    Y=             -0.6639    Z=              1.3043  Tot=              1.5568
 Quadrupole moment (field-independent basis, Debye-Ang):
   XX=            -55.9279   YY=            -57.3727   ZZ=            -66.3971
   XY=             -2.3529   XZ=              2.2270   YZ=              3.7729
 Traceless Quadrupole moment (field-independent basis, Debye-Ang):
   XX=              3.9713   YY=              2.5266   ZZ=             -6.4979
   XY=             -2.3529   XZ=              2.2270   YZ=              3.7729
 Octapole moment (field-independent basis, Debye-Ang**2):
  XXX=             -1.2590  YYY=              2.0376  ZZZ=              1.3870  XYY=             -3.4502
  XXY=             -4.1705  XXZ=              3.3656  XZZ=              5.5999  YZZ=              7.8705
  YYZ=             10.4071  XYZ=              6.3647
 Hexadecapole moment (field-independent basis, Debye-Ang**3):
 XXXX=          -1103.8394 YYYY=           -655.4611 ZZZZ=            -76.9430 XXXY=            -11.9839
 XXXZ=              5.7489 YYYX=             -1.0184 YYYZ=             27.5978 ZZZX=              2.6342
 ZZZY=              4.5522 XXYY=           -305.9503 XXZZ=           -234.0638 YYZZ=           -133.9955
 XXYZ=              9.7835 YYXZ=             16.8750 ZZXY=             12.2482
 N-N= 5.627964379992D+02 E-N=-2.200233669460D+03  KE= 4.616940020068D+02
 No NMR shielding tensors so no spin-rotation constants.
 Leave Link  601 at Mon Nov 21 14:57:20 2022, MaxMem= 16106127360 cpu:               3.9 elap:               0.1
 (Enter /opt/ap/G16/B01/g16/l9999.exe)
 1\1\GINC-N09\SP\RwB97XD\6-311++G(d,p)\C10H8O1\ROOT\21-Nov-2022\0\\#P w
 B97XD/6-311++G(d,p) scf=maxcycle=512\\_conf052.gjf nmol_natom 1_19\\0,
 1\C\C,1,1.40879539\C,1,1.42289824,2,117.24956717\C,2,1.41887971,1,119.
 07594714,3,0.16510261,0\C,2,1.42227783,1,117.46262303,3,-179.44443577,
 0\C,1,1.42440336,2,119.00293897,4,179.73740031,0\C,3,1.35510367,1,122.
 33979448,2,-0.36120568,0\O,3,1.37615658,1,115.04370777,2,-179.5931286,
 0\C,4,1.34577659,2,121.30210156,1,0.17277764,0\H,4,0.93023405,2,119.33
 469462,1,-179.75965297,0\C,5,1.34486794,2,122.06073707,1,-0.32265162,0
 \H,5,0.92957893,2,118.96449269,1,179.64671542,0\C,6,1.35980576,1,121.1
 112438,2,0.11625163,0\H,6,0.92999796,1,119.43671105,2,-179.87270235,0\
 H,7,0.93052813,3,120.28038366,1,-179.76477098,0\H,8,0.81991994,3,109.4
 8785721,1,80.,0\H,9,0.93027331,4,119.71917791,2,179.60144151,0\H,11,0.
 92987565,5,119.70372857,2,-179.69197286,0\H,13,0.93032717,6,120.145246
 92,1,179.85241379,0\\Version=ES64L-G16RevB.01\State=1-A\HF=-460.886798
 9\RMSD=7.310e-09\Dipole=-0.147785,0.507603,0.3092895\Quadrupole=3.6559
 73,-4.7241442,1.0681712,1.0168182,1.3691697,-3.1845681\PG=C01 [X(C10H8
 O1)]\\@


 A MAN THINKING OR WORKING IS ALWAYS ALONE, 
 LET HIM BE WHERE HE WILL.

                                    -- THOREAU
 Job cpu time:       0 days  0 hours 12 minutes 36.8 seconds.
 Elapsed time:       0 days  0 hours  0 minutes 23.8 seconds.
 File lengths (MBytes):  RWF=     51 Int=      0 D2E=      0 Chk=      6 Scr=      1
 Normal termination of Gaussian 16 at Mon Nov 21 14:57:20 2022.
