 Entering Gaussian System, Link 0=g16
 Input=_conf006.gjf
 Output=_conf006.log
 Initial command:
 /opt/ap/G16/B01/g16/l1.exe "/tmp2/scr/Gau-30661.inp" -scrdir="/tmp2/scr/"
 Entering Link 1 = /opt/ap/G16/B01/g16/l1.exe PID=     30662.
  
 Copyright (c) 1988-2017, Gaussian, Inc.  All Rights Reserved.
  
 This is part of the Gaussian(R) 16 program.  It is based on
 the Gaussian(R) 09 system (copyright 2009, Gaussian, Inc.),
 the Gaussian(R) 03 system (copyright 2003, Gaussian, Inc.),
 the Gaussian(R) 98 system (copyright 1998, Gaussian, Inc.),
 the Gaussian(R) 94 system (copyright 1995, Gaussian, Inc.),
 the Gaussian 92(TM) system (copyright 1992, Gaussian, Inc.),
 the Gaussian 90(TM) system (copyright 1990, Gaussian, Inc.),
 the Gaussian 88(TM) system (copyright 1988, Gaussian, Inc.),
 the Gaussian 86(TM) system (copyright 1986, Carnegie Mellon
 University), and the Gaussian 82(TM) system (copyright 1983,
 Carnegie Mellon University). Gaussian is a federally registered
 trademark of Gaussian, Inc.
  
 This software contains proprietary and confidential information,
 including trade secrets, belonging to Gaussian, Inc.
  
 This software is provided under written license and may be
 used, copied, transmitted, or stored only in accord with that
 written license.
  
 The following legend is applicable only to US Government
 contracts under FAR:
  
                    RESTRICTED RIGHTS LEGEND
  
 Use, reproduction and disclosure by the US Government is
 subject to restrictions as set forth in subparagraphs (a)
 and (c) of the Commercial Computer Software - Restricted
 Rights clause in FAR 52.227-19.
  
 Gaussian, Inc.
 340 Quinnipiac St., Bldg. 40, Wallingford CT 06492
  
  
 ---------------------------------------------------------------
 Warning -- This program may not be used in any manner that
 competes with the business of Gaussian, Inc. or will provide
 assistance to any competitor of Gaussian, Inc.  The licensee
 of this program is prohibited from giving any competitor of
 Gaussian, Inc. access to this program.  By using this program,
 the user acknowledges that Gaussian, Inc. is engaged in the
 business of creating and licensing software in the field of
 computational chemistry and represents and warrants to the
 licensee that it is not a competitor of Gaussian, Inc. and that
 it will not use this program in any manner prohibited above.
 ---------------------------------------------------------------
  

 Cite this work as:
 Gaussian 16, Revision B.01,
 M. J. Frisch, G. W. Trucks, H. B. Schlegel, G. E. Scuseria, 
 M. A. Robb, J. R. Cheeseman, G. Scalmani, V. Barone, 
 G. A. Petersson, H. Nakatsuji, X. Li, M. Caricato, A. V. Marenich, 
 J. Bloino, B. G. Janesko, R. Gomperts, B. Mennucci, H. P. Hratchian, 
 J. V. Ortiz, A. F. Izmaylov, J. L. Sonnenberg, D. Williams-Young, 
 F. Ding, F. Lipparini, F. Egidi, J. Goings, B. Peng, A. Petrone, 
 T. Henderson, D. Ranasinghe, V. G. Zakrzewski, J. Gao, N. Rega, 
 G. Zheng, W. Liang, M. Hada, M. Ehara, K. Toyota, R. Fukuda, 
 J. Hasegawa, M. Ishida, T. Nakajima, Y. Honda, O. Kitao, H. Nakai, 
 T. Vreven, K. Throssell, J. A. Montgomery, Jr., J. E. Peralta, 
 F. Ogliaro, M. J. Bearpark, J. J. Heyd, E. N. Brothers, K. N. Kudin, 
 V. N. Staroverov, T. A. Keith, R. Kobayashi, J. Normand, 
 K. Raghavachari, A. P. Rendell, J. C. Burant, S. S. Iyengar, 
 J. Tomasi, M. Cossi, J. M. Millam, M. Klene, C. Adamo, R. Cammi, 
 J. W. Ochterski, R. L. Martin, K. Morokuma, O. Farkas, 
 J. B. Foresman, and D. J. Fox, Gaussian, Inc., Wallingford CT, 2016.
 
 ******************************************
 Gaussian 16:  ES64L-G16RevB.01 20-Dec-2017
                21-Nov-2022 
 ******************************************
 %nprocshared=32
 Will use up to   32 processors via shared memory.
 %mem=120GB
 %chk=_conf006.chk
 ----------------------------------------
 #P wB97XD/6-311++G(d,p) scf=maxcycle=512
 ----------------------------------------
 1/38=1,172=1/1;
 2/12=2,17=6,18=5,40=1/2;
 3/5=4,6=6,7=1111,11=2,25=1,30=1,74=-58/1,2,3;
 4//1;
 5/5=2,7=512,38=5/2;
 6/7=2,8=2,9=2,10=2,28=1/1;
 99/5=1,9=1/99;
 Leave Link    1 at Mon Nov 21 14:51:53 2022, MaxMem= 16106127360 cpu:               2.4 elap:               0.1
 (Enter /opt/ap/G16/B01/g16/l101.exe)
 ----------------------------
 _conf006.gjf nmol_natom 1_19
 ----------------------------
 Symbolic Z-matrix:
 Charge =  0 Multiplicity = 1
 C
 C                    1     1.4088 
 C                    1     1.4229   2     117.24957 
 C                    2     1.41888  1     119.07595  3     0.1651   0
 C                    2     1.42228  1     117.46262  3    -179.44444  0
 C                    1     1.4244   2     119.00294  4     179.7374  0
 C                    3     1.3551   1     122.33979  2    -0.36121  0
 O                    3     1.37616  1     115.04371  2    -179.59313  0
 C                    4     1.34578  2     121.3021  1     0.17278  0
 H                    4     0.93023  2     119.33469  1    -179.75965  0
 C                    5     1.34487  2     122.06074  1    -0.32265  0
 H                    5     0.92958  2     118.96449  1     179.64672  0
 C                    6     1.35981  1     121.11124  2     0.11625  0
 H                    6     0.93     1     119.43671  2    -179.8727  0
 H                    7     0.93053  3     120.28038  1    -179.76477  0
 H                    8     0.81992  3     109.48786  1    -150.     0
 H                    9     0.93027  4     119.71918  2     179.60144  0
 H                    11    0.92988  5     119.70373  2    -179.69197  0
 H                    13    0.93033  6     120.14525  1     179.85241  0
 
 ITRead=  0  0  0  0  0  0  0  0  0  0  0  0  0  0  0  0  0  0  0
 MicOpt= -1 -1 -1 -1 -1 -1 -1 -1 -1 -1 -1 -1 -1 -1 -1 -1 -1 -1 -1
 NAtoms=     19 NQM=       19 NQMF=       0 NMMI=      0 NMMIF=      0
                NMic=       0 NMicF=      0.
                    Isotopes and Nuclear Properties:
 (Nuclear quadrupole moments (NQMom) in fm**2, nuclear magnetic moments (NMagM)
  in nuclear magnetons)

  Atom         1           2           3           4           5           6           7           8           9          10
 IAtWgt=          12          12          12          12          12          12          12          16          12           1
 AtmWgt=  12.0000000  12.0000000  12.0000000  12.0000000  12.0000000  12.0000000  12.0000000  15.9949146  12.0000000   1.0078250
 NucSpn=           0           0           0           0           0           0           0           0           0           1
 AtZEff=  -0.0000000  -0.0000000  -0.0000000  -0.0000000  -0.0000000  -0.0000000  -0.0000000  -0.0000000  -0.0000000  -0.0000000
 NQMom=    0.0000000   0.0000000   0.0000000   0.0000000   0.0000000   0.0000000   0.0000000   0.0000000   0.0000000   0.0000000
 NMagM=    0.0000000   0.0000000   0.0000000   0.0000000   0.0000000   0.0000000   0.0000000   0.0000000   0.0000000   2.7928460
 AtZNuc=   6.0000000   6.0000000   6.0000000   6.0000000   6.0000000   6.0000000   6.0000000   8.0000000   6.0000000   1.0000000

  Atom        11          12          13          14          15          16          17          18          19
 IAtWgt=          12           1          12           1           1           1           1           1           1
 AtmWgt=  12.0000000   1.0078250  12.0000000   1.0078250   1.0078250   1.0078250   1.0078250   1.0078250   1.0078250
 NucSpn=           0           1           0           1           1           1           1           1           1
 AtZEff=  -0.0000000  -0.0000000  -0.0000000  -0.0000000  -0.0000000  -0.0000000  -0.0000000  -0.0000000  -0.0000000
 NQMom=    0.0000000   0.0000000   0.0000000   0.0000000   0.0000000   0.0000000   0.0000000   0.0000000   0.0000000
 NMagM=    0.0000000   2.7928460   0.0000000   2.7928460   2.7928460   2.7928460   2.7928460   2.7928460   2.7928460
 AtZNuc=   6.0000000   1.0000000   6.0000000   1.0000000   1.0000000   1.0000000   1.0000000   1.0000000   1.0000000
 Leave Link  101 at Mon Nov 21 14:51:54 2022, MaxMem= 16106127360 cpu:               5.3 elap:               0.2
 (Enter /opt/ap/G16/B01/g16/l202.exe)
                          Input orientation:                          
 ---------------------------------------------------------------------
 Center     Atomic      Atomic             Coordinates (Angstroms)
 Number     Number       Type             X           Y           Z
 ---------------------------------------------------------------------
      1          6           0        0.000000    0.000000    0.000000
      2          6           0        0.000000    0.000000    1.408795
      3          6           0        1.264986    0.000000   -0.651498
      4          6           0        1.240062    0.003573    2.098326
      5          6           0       -1.261945   -0.012237    2.064707
      6          6           0       -1.245741   -0.009299   -0.690628
      7          6           0        2.433644    0.007218    0.034427
      8          8           0        1.212032    0.008854   -2.026607
      9          6           0        2.409936    0.010412    1.433147
     10          1           0        1.244276    0.000184    3.028545
     11          6           0       -2.421000   -0.017057    1.382624
     12          1           0       -1.286266   -0.017488    2.993953
     13          6           0       -2.424704   -0.015738   -0.013076
     14          1           0       -1.252769   -0.011151   -1.620598
     15          1           0        3.245045    0.010306   -0.421097
     16          1           0        1.869144   -0.377863   -2.328141
     17          1           0        3.210137    0.018260    1.907515
     18          1           0       -3.227740   -0.020753    1.845035
     19          1           0       -3.230632   -0.019714   -0.477804
 ---------------------------------------------------------------------
                    Distance matrix (angstroms):
                    1          2          3          4          5
     1  C    0.000000
     2  C    1.408795   0.000000
     3  C    1.422898   2.417643   0.000000
     4  C    2.437363   1.418880   2.749940   0.000000
     5  C    2.419849   1.422278   3.709892   2.502283   0.000000
     6  C    1.424403   2.441216   2.511049   3.735994   2.755385
     7  C    2.433898   2.794917   1.355104   2.384184   4.216609
     8  O    2.361406   3.642951   1.376157   4.125032   4.781198
     9  C    2.803892   2.410081   2.378396   1.345777   3.725867
    10  H    3.274188   2.042501   3.680101   0.930234   2.685197
    11  C    2.788042   2.421201   4.210040   3.730420   1.344868
    12  H    3.258610   2.041448   4.449551   2.680471   0.929579
    13  C    2.424790   2.810899   3.744548   4.229527   2.381009
    14  H    2.048388   3.278228   2.697845   4.477144   3.685317
    15  H    3.272269   3.725443   1.993445   3.219859   5.147104
    16  H    3.009439   4.195375   1.821790   4.487188   5.406895
    17  H    3.734157   3.248697   3.214420   1.979348   4.474947
    18  H    3.717915   3.257153   5.139815   4.475043   1.978050
    19  H    3.265834   3.741207   4.499015   5.159854   3.215610
                    6          7          8          9         10
     6  C    0.000000
     7  C    3.750180   0.000000
     8  O    2.797466   2.395871   0.000000
     9  C    4.227858   1.398925   3.661267   0.000000
    10  H    4.475771   3.221706   5.055262   1.975895   0.000000
    11  C    2.383205   5.038431   4.982213   4.831278   4.017910
    12  H    3.684813   4.753644   5.607870   4.012331   2.530840
    13  C    1.359806   4.858634   4.157013   5.046383   4.765829
    14  H    0.929998   4.040926   2.498097   4.768777   5.277300
    15  H    4.498910   0.930528   2.590522   2.033624   3.987882
    16  H    3.538332   2.459405   0.819920   3.819752   5.406243
    17  H    5.158096   2.027689   4.412463   0.930273   2.263105
    18  H    3.218391   5.943934   5.890846   5.652788   4.626021
    19  H    1.996295   5.687453   4.704984   5.955556   5.685040
                   11         12         13         14         15
    11  C    0.000000
    12  H    1.970788   0.000000
    13  C    1.395705   3.215317   0.000000
    14  H    3.222443   4.614677   1.989366   0.000000
    15  H    5.946277   5.674162   5.684470   4.655061   0.000000
    16  H    5.683774   6.197674   4.891604   3.222024   2.383400
    17  H    5.655657   4.625934   5.953256   5.689110   2.328887
    18  H    0.929876   2.255958   2.024221   3.988887   6.858080
    19  H    2.028966   3.979153   0.930327   2.284293   6.475995
                   16         17         18         19
    16  H    0.000000
    17  H    4.460489   0.000000
    18  H    6.597057   6.438299   0.000000
    19  H    5.436887   6.868384   2.322841   0.000000
 Stoichiometry    C10H8O
 Framework group  C1[X(C10H8O)]
 Deg. of freedom    51
 Full point group                 C1      NOp   1
 Largest Abelian subgroup         C1      NOp   1
 Largest concise Abelian subgroup C1      NOp   1
                         Standard orientation:                         
 ---------------------------------------------------------------------
 Center     Atomic      Atomic             Coordinates (Angstroms)
 Number     Number       Type             X           Y           Z
 ---------------------------------------------------------------------
      1          6           0        0.031965    0.429765   -0.010111
      2          6           0        0.371818   -0.937397   -0.001564
      3          6           0       -1.352825    0.756869   -0.009921
      4          6           0       -0.665285   -1.905703    0.003108
      5          6           0        1.754742   -1.269436    0.010518
      6          6           0        1.074324    1.400544   -0.009082
      7          6           0       -2.321508   -0.190737   -0.009149
      8          8           0       -1.633176    2.104054   -0.027290
      9          6           0       -1.961083   -1.542424   -0.003935
     10          1           0       -0.444966   -2.809424    0.012155
     11          6           0        2.715029   -0.327890    0.007404
     12          1           0        2.002522   -2.165319    0.021327
     13          6           0        2.381927    1.027447   -0.002395
     14          1           0        0.856805    2.304738   -0.012896
     15          1           0       -3.218838    0.055577   -0.012343
     16          1           0       -2.342958    2.240751    0.359740
     17          1           0       -2.623229   -2.195851   -0.006284
     18          1           0        3.609499   -0.582009    0.011263
     19          1           0        3.051950    1.672874   -0.003878
 ---------------------------------------------------------------------
 Rotational constants (GHZ):           2.0128910           1.1476909           0.7312433
 Leave Link  202 at Mon Nov 21 14:51:54 2022, MaxMem= 16106127360 cpu:               0.4 elap:               0.0
 (Enter /opt/ap/G16/B01/g16/l301.exe)
 Standard basis: 6-311++G(d,p) (5D, 7F)
 Ernie: Thresh=  0.10000D-02 Tol=  0.10000D-05 Strict=F.
 There are   309 symmetry adapted cartesian basis functions of A   symmetry.
 There are   298 symmetry adapted basis functions of A   symmetry.
   298 basis functions,   468 primitive gaussians,   309 cartesian basis functions
    38 alpha electrons       38 beta electrons
       nuclear repulsion energy       562.3877085084 Hartrees.
 IExCor= 4639 DFT=T Ex+Corr=wB97XD ExCW=0 ScaHFX=  1.000000
 ScaDFX=  1.000000  1.000000  1.000000  1.000000 ScalE2=  1.000000  1.000000
 IRadAn=      5 IRanWt=     -1 IRanGd=            0 ICorTp=0 IEmpDi=121
 HFx  wShort=  0.000000 wLong=  0.200000 cFull=  0.222036 cShort=  0.000000 cLong=  0.777964
 DFx  wShort=  0.000000 wLong=  0.200000 cFull=  0.000000 cShort=  0.000000 cLong=  1.000000
 NAtoms=   19 NActive=   19 NUniq=   19 SFac= 1.00D+00 NAtFMM=   60 NAOKFM=F Big=F
 Integral buffers will be    131072 words long.
 Raffenetti 2 integral format.
 Two-electron integral symmetry is turned on.
 R6Disp:  Grimme-D2 Dispersion energy=       -0.0102237244 Hartrees.
 Nuclear repulsion after empirical dispersion term =      562.3774847840 Hartrees.
 Leave Link  301 at Mon Nov 21 14:51:54 2022, MaxMem= 16106127360 cpu:               1.1 elap:               0.0
 (Enter /opt/ap/G16/B01/g16/l302.exe)
 NPDir=0 NMtPBC=     1 NCelOv=     1 NCel=       1 NClECP=     1 NCelD=      1
         NCelK=      1 NCelE2=     1 NClLst=     1 CellRange=     0.0.
 One-electron integrals computed using PRISM.
 One-electron integral symmetry used in STVInt
 NBasis=   298 RedAO= T EigKep=  1.21D-06  NBF=   298
 NBsUse=   296 1.00D-06 EigRej=  6.14D-07 NBFU=   296
 Precomputing XC quadrature grid using
 IXCGrd= 4 IRadAn=           5 IRanWt=          -1 IRanGd=           0 AccXCQ= 0.00D+00.
 Generated NRdTot=       0 NPtTot=           0 NUsed=           0 NTot=          32
 NSgBfM=   309   309   309   309   309 MxSgAt=    19 MxSgA2=    19.
 Leave Link  302 at Mon Nov 21 14:51:54 2022, MaxMem= 16106127360 cpu:               6.6 elap:               0.2
 (Enter /opt/ap/G16/B01/g16/l303.exe)
 DipDrv:  MaxL=1.
 Leave Link  303 at Mon Nov 21 14:51:54 2022, MaxMem= 16106127360 cpu:               1.4 elap:               0.1
 (Enter /opt/ap/G16/B01/g16/l401.exe)
 ExpMin= 3.60D-02 ExpMax= 8.59D+03 ExpMxC= 1.30D+03 IAcc=3 IRadAn=         5 AccDes= 0.00D+00
 Harris functional with IExCor= 4639 and IRadAn=       5 diagonalized for initial guess.
 HarFok:  IExCor= 4639 AccDes= 0.00D+00 IRadAn=         5 IDoV= 1 UseB2=F ITyADJ=14
 ICtDFT=  3500011 ScaDFX=  1.000000  1.000000  1.000000  1.000000
 FoFCou: FMM=F IPFlag=           0 FMFlag=      100000 FMFlg1=           0
         NFxFlg=           0 DoJE=T BraDBF=F KetDBF=T FulRan=T
         wScrn=  0.000000 ICntrl=       500 IOpCl=  0 I1Cent=   200000004 NGrid=           0
         NMat0=    1 NMatS0=      1 NMatT0=    0 NMatD0=    1 NMtDS0=    0 NMtDT0=    0
 Petite list used in FoFCou.
 Harris En= -440.618607813757    
 JPrj=0 DoOrth=F DoCkMO=F.
 Leave Link  401 at Mon Nov 21 14:51:55 2022, MaxMem= 16106127360 cpu:              16.2 elap:               0.5
 (Enter /opt/ap/G16/B01/g16/l502.exe)
 Integral symmetry usage will be decided dynamically.
 Closed shell SCF:
 Using DIIS extrapolation, IDIIS=  1040.
 NGot= 16106127360 LenX= 16105923535 LenY= 16105827613
 Requested convergence on RMS density matrix=1.00D-08 within 512 cycles.
 Requested convergence on MAX density matrix=1.00D-06.
 Requested convergence on             energy=1.00D-06.
 No special actions if energy rises.
 Fock matrices will be formed incrementally for  20 cycles.

 Cycle   1  Pass 1  IDiag  1:
 FoFJK:  IHMeth= 1 ICntrl=       0 DoSepK=T KAlg= 0 I1Cent=           0 FoldK=F
 IRaf=         1 NMat=       1 IRICut=       1 DoRegI=T DoRafI=F ISym2E= 0 IDoP0=0 IntGTp=1.
 FoFCou: FMM=F IPFlag=           0 FMFlag=      100000 FMFlg1=           0
         NFxFlg=           0 DoJE=T BraDBF=F KetDBF=F FulRan=T
         wScrn=  0.000000 ICntrl=       500 IOpCl=  0 I1Cent=           0 NGrid=           0
         NMat0=    1 NMatS0=      1 NMatT0=    0 NMatD0=    1 NMtDS0=    0 NMtDT0=    0
 Symmetry not used in FoFCou.
 E= -460.750495584825    
 DIIS: error= 4.09D-02 at cycle   1 NSaved=   1.
 NSaved= 1 IEnMin= 1 EnMin= -460.750495584825     IErMin= 1 ErrMin= 4.09D-02
 ErrMax= 4.09D-02  0.00D+00 EMaxC= 1.00D-01 BMatC= 9.59D-01 BMatP= 9.59D-01
 IDIUse=3 WtCom= 5.91D-01 WtEn= 4.09D-01
 Coeff-Com:  0.100D+01
 Coeff-En:   0.100D+01
 Coeff:      0.100D+01
 Gap=     0.345 Goal=   None    Shift=    0.000
 GapD=    0.345 DampG=1.000 DampE=0.500 DampFc=0.5000 IDamp=-1.
 Damping current iteration by 5.00D-01
 RMSDP=4.19D-02 MaxDP=3.69D+00              OVMax= 1.38D-01

 Cycle   2  Pass 1  IDiag  1:
 RMSU=  8.44D-03    CP:  8.29D-01
 E= -460.819439923075     Delta-E=       -0.068944338250 Rises=F Damp=T
 DIIS: error= 1.99D-02 at cycle   2 NSaved=   2.
 NSaved= 2 IEnMin= 2 EnMin= -460.819439923075     IErMin= 2 ErrMin= 1.99D-02
 ErrMax= 1.99D-02  0.00D+00 EMaxC= 1.00D-01 BMatC= 2.08D-01 BMatP= 9.59D-01
 IDIUse=3 WtCom= 8.01D-01 WtEn= 1.99D-01
 Coeff-Com: -0.705D+00 0.170D+01
 Coeff-En:   0.000D+00 0.100D+01
 Coeff:     -0.564D+00 0.156D+01
 Gap=     0.346 Goal=   None    Shift=    0.000
 RMSDP=2.28D-02 MaxDP=2.54D+00 DE=-6.89D-02 OVMax= 1.48D-01

 Cycle   3  Pass 1  IDiag  1:
 RMSU=  1.37D-02    CP:  6.78D-01  1.79D+00
 E= -460.858584979107     Delta-E=       -0.039145056032 Rises=F Damp=F
 DIIS: error= 9.47D-03 at cycle   3 NSaved=   3.
 NSaved= 3 IEnMin= 3 EnMin= -460.858584979107     IErMin= 3 ErrMin= 9.47D-03
 ErrMax= 9.47D-03  0.00D+00 EMaxC= 1.00D-01 BMatC= 3.70D-02 BMatP= 2.08D-01
 IDIUse=3 WtCom= 9.05D-01 WtEn= 9.47D-02
 Coeff-Com: -0.385D+00 0.816D+00 0.569D+00
 Coeff-En:   0.000D+00 0.000D+00 0.100D+01
 Coeff:     -0.349D+00 0.739D+00 0.609D+00
 Gap=     0.318 Goal=   None    Shift=    0.000
 RMSDP=1.12D-02 MaxDP=6.95D-01 DE=-3.91D-02 OVMax= 6.80D-02

 Cycle   4  Pass 1  IDiag  1:
 RMSU=  2.59D-03    CP:  6.24D-01  1.60D+00  3.45D-01
 E= -460.890715722371     Delta-E=       -0.032130743264 Rises=F Damp=F
 DIIS: error= 1.74D-03 at cycle   4 NSaved=   4.
 NSaved= 4 IEnMin= 4 EnMin= -460.890715722371     IErMin= 4 ErrMin= 1.74D-03
 ErrMax= 1.74D-03  0.00D+00 EMaxC= 1.00D-01 BMatC= 1.12D-03 BMatP= 3.70D-02
 IDIUse=3 WtCom= 9.83D-01 WtEn= 1.74D-02
 Coeff-Com: -0.140D+00 0.298D+00 0.284D+00 0.559D+00
 Coeff-En:   0.000D+00 0.000D+00 0.000D+00 0.100D+01
 Coeff:     -0.138D+00 0.292D+00 0.279D+00 0.566D+00
 Gap=     0.308 Goal=   None    Shift=    0.000
 RMSDP=1.64D-03 MaxDP=9.24D-02 DE=-3.21D-02 OVMax= 8.92D-03

 Cycle   5  Pass 1  IDiag  1:
 RMSU=  4.77D-04    CP:  6.29D-01  1.64D+00  4.38D-01  7.84D-01
 E= -460.891718455944     Delta-E=       -0.001002733573 Rises=F Damp=F
 DIIS: error= 2.67D-04 at cycle   5 NSaved=   5.
 NSaved= 5 IEnMin= 5 EnMin= -460.891718455944     IErMin= 5 ErrMin= 2.67D-04
 ErrMax= 2.67D-04  0.00D+00 EMaxC= 1.00D-01 BMatC= 1.74D-05 BMatP= 1.12D-03
 IDIUse=3 WtCom= 9.97D-01 WtEn= 2.67D-03
 Coeff-Com:  0.874D-02-0.185D-01 0.571D-02 0.120D+00 0.884D+00
 Coeff-En:   0.000D+00 0.000D+00 0.000D+00 0.000D+00 0.100D+01
 Coeff:      0.872D-02-0.184D-01 0.570D-02 0.120D+00 0.884D+00
 Gap=     0.308 Goal=   None    Shift=    0.000
 RMSDP=3.07D-04 MaxDP=1.82D-02 DE=-1.00D-03 OVMax= 2.90D-03

 Cycle   6  Pass 1  IDiag  1:
 RMSU=  1.84D-04    CP:  6.28D-01  1.63D+00  4.28D-01  8.24D-01  1.13D+00
 E= -460.891745818815     Delta-E=       -0.000027362870 Rises=F Damp=F
 DIIS: error= 1.97D-04 at cycle   6 NSaved=   6.
 NSaved= 6 IEnMin= 6 EnMin= -460.891745818815     IErMin= 6 ErrMin= 1.97D-04
 ErrMax= 1.97D-04  0.00D+00 EMaxC= 1.00D-01 BMatC= 3.57D-06 BMatP= 1.74D-05
 IDIUse=3 WtCom= 9.98D-01 WtEn= 1.97D-03
 Coeff-Com:  0.170D-01-0.361D-01-0.243D-01-0.144D-01 0.320D+00 0.737D+00
 Coeff-En:   0.000D+00 0.000D+00 0.000D+00 0.000D+00 0.000D+00 0.100D+01
 Coeff:      0.169D-01-0.361D-01-0.243D-01-0.143D-01 0.320D+00 0.738D+00
 Gap=     0.309 Goal=   None    Shift=    0.000
 RMSDP=1.10D-04 MaxDP=6.94D-03 DE=-2.74D-05 OVMax= 1.18D-03

 Cycle   7  Pass 1  IDiag  1:
 RMSU=  4.56D-05    CP:  6.28D-01  1.63D+00  4.26D-01  8.27D-01  1.22D+00
                    CP:  1.09D+00
 E= -460.891751626338     Delta-E=       -0.000005807524 Rises=F Damp=F
 DIIS: error= 5.20D-05 at cycle   7 NSaved=   7.
 NSaved= 7 IEnMin= 7 EnMin= -460.891751626338     IErMin= 7 ErrMin= 5.20D-05
 ErrMax= 5.20D-05  0.00D+00 EMaxC= 1.00D-01 BMatC= 2.93D-07 BMatP= 3.57D-06
 IDIUse=1 WtCom= 1.00D+00 WtEn= 0.00D+00
 Coeff-Com:  0.139D-02-0.291D-02-0.270D-02-0.132D-01-0.619D-01 0.104D+00
 Coeff-Com:  0.976D+00
 Coeff:      0.139D-02-0.291D-02-0.270D-02-0.132D-01-0.619D-01 0.104D+00
 Coeff:      0.976D+00
 Gap=     0.309 Goal=   None    Shift=    0.000
 RMSDP=3.35D-05 MaxDP=2.76D-03 DE=-5.81D-06 OVMax= 7.03D-04

 Cycle   8  Pass 1  IDiag  1:
 RMSU=  2.15D-05    CP:  6.28D-01  1.63D+00  4.25D-01  8.31D-01  1.23D+00
                    CP:  1.19D+00  1.11D+00
 E= -460.891752532765     Delta-E=       -0.000000906427 Rises=F Damp=F
 DIIS: error= 2.74D-05 at cycle   8 NSaved=   8.
 NSaved= 8 IEnMin= 8 EnMin= -460.891752532765     IErMin= 8 ErrMin= 2.74D-05
 ErrMax= 2.74D-05  0.00D+00 EMaxC= 1.00D-01 BMatC= 8.85D-08 BMatP= 2.93D-07
 IDIUse=1 WtCom= 1.00D+00 WtEn= 0.00D+00
 Coeff-Com: -0.198D-02 0.426D-02 0.292D-02-0.254D-02-0.757D-01-0.708D-01
 Coeff-Com:  0.412D+00 0.732D+00
 Coeff:     -0.198D-02 0.426D-02 0.292D-02-0.254D-02-0.757D-01-0.708D-01
 Coeff:      0.412D+00 0.732D+00
 Gap=     0.309 Goal=   None    Shift=    0.000
 RMSDP=1.09D-05 MaxDP=1.09D-03 DE=-9.06D-07 OVMax= 2.09D-04

 Cycle   9  Pass 1  IDiag  1:
 RMSU=  7.60D-06    CP:  6.28D-01  1.63D+00  4.25D-01  8.31D-01  1.23D+00
                    CP:  1.22D+00  1.16D+00  1.02D+00
 E= -460.891752705242     Delta-E=       -0.000000172476 Rises=F Damp=F
 DIIS: error= 1.00D-05 at cycle   9 NSaved=   9.
 NSaved= 9 IEnMin= 9 EnMin= -460.891752705242     IErMin= 9 ErrMin= 1.00D-05
 ErrMax= 1.00D-05  0.00D+00 EMaxC= 1.00D-01 BMatC= 7.27D-09 BMatP= 8.85D-08
 IDIUse=1 WtCom= 1.00D+00 WtEn= 0.00D+00
 Coeff-Com: -0.763D-03 0.163D-02 0.134D-02 0.144D-02-0.134D-01-0.378D-01
 Coeff-Com: -0.268D-01 0.181D+00 0.894D+00
 Coeff:     -0.763D-03 0.163D-02 0.134D-02 0.144D-02-0.134D-01-0.378D-01
 Coeff:     -0.268D-01 0.181D+00 0.894D+00
 Gap=     0.309 Goal=   None    Shift=    0.000
 RMSDP=6.90D-06 MaxDP=3.91D-04 DE=-1.72D-07 OVMax= 1.22D-04

 Cycle  10  Pass 1  IDiag  1:
 RMSU=  3.40D-06    CP:  6.28D-01  1.63D+00  4.25D-01  8.30D-01  1.23D+00
                    CP:  1.22D+00  1.18D+00  1.10D+00  1.14D+00
 E= -460.891752730966     Delta-E=       -0.000000025724 Rises=F Damp=F
 DIIS: error= 5.73D-06 at cycle  10 NSaved=  10.
 NSaved=10 IEnMin=10 EnMin= -460.891752730966     IErMin=10 ErrMin= 5.73D-06
 ErrMax= 5.73D-06  0.00D+00 EMaxC= 1.00D-01 BMatC= 1.18D-09 BMatP= 7.27D-09
 IDIUse=1 WtCom= 1.00D+00 WtEn= 0.00D+00
 Coeff-Com:  0.385D-04-0.879D-04 0.178D-04 0.760D-03 0.575D-02-0.992D-03
 Coeff-Com: -0.526D-01-0.702D-01 0.222D+00 0.895D+00
 Coeff:      0.385D-04-0.879D-04 0.178D-04 0.760D-03 0.575D-02-0.992D-03
 Coeff:     -0.526D-01-0.702D-01 0.222D+00 0.895D+00
 Gap=     0.309 Goal=   None    Shift=    0.000
 RMSDP=1.97D-06 MaxDP=1.95D-04 DE=-2.57D-08 OVMax= 4.45D-05

 Cycle  11  Pass 1  IDiag  1:
 RMSU=  8.06D-07    CP:  6.28D-01  1.63D+00  4.25D-01  8.30D-01  1.23D+00
                    CP:  1.22D+00  1.17D+00  1.14D+00  1.24D+00  1.15D+00
 E= -460.891752734809     Delta-E=       -0.000000003843 Rises=F Damp=F
 DIIS: error= 1.73D-06 at cycle  11 NSaved=  11.
 NSaved=11 IEnMin=11 EnMin= -460.891752734809     IErMin=11 ErrMin= 1.73D-06
 ErrMax= 1.73D-06  0.00D+00 EMaxC= 1.00D-01 BMatC= 2.45D-10 BMatP= 1.18D-09
 IDIUse=1 WtCom= 1.00D+00 WtEn= 0.00D+00
 Coeff-Com:  0.140D-03-0.300D-03-0.213D-03 0.553D-04 0.421D-02 0.536D-02
 Coeff-Com: -0.122D-01-0.596D-01-0.631D-01 0.336D+00 0.790D+00
 Coeff:      0.140D-03-0.300D-03-0.213D-03 0.553D-04 0.421D-02 0.536D-02
 Coeff:     -0.122D-01-0.596D-01-0.631D-01 0.336D+00 0.790D+00
 Gap=     0.309 Goal=   None    Shift=    0.000
 RMSDP=7.25D-07 MaxDP=3.95D-05 DE=-3.84D-09 OVMax= 1.67D-05

 Cycle  12  Pass 1  IDiag  1:
 RMSU=  3.35D-07    CP:  6.28D-01  1.63D+00  4.25D-01  8.30D-01  1.23D+00
                    CP:  1.22D+00  1.17D+00  1.15D+00  1.27D+00  1.22D+00
                    CP:  1.11D+00
 E= -460.891752735445     Delta-E=       -0.000000000637 Rises=F Damp=F
 DIIS: error= 7.13D-07 at cycle  12 NSaved=  12.
 NSaved=12 IEnMin=12 EnMin= -460.891752735445     IErMin=12 ErrMin= 7.13D-07
 ErrMax= 7.13D-07  0.00D+00 EMaxC= 1.00D-01 BMatC= 1.83D-11 BMatP= 2.45D-10
 IDIUse=1 WtCom= 1.00D+00 WtEn= 0.00D+00
 Coeff-Com:  0.651D-05-0.130D-04-0.239D-04-0.119D-03-0.516D-03 0.408D-03
 Coeff-Com:  0.849D-02 0.486D-02-0.433D-01-0.101D+00 0.992D-02 0.112D+01
 Coeff:      0.651D-05-0.130D-04-0.239D-04-0.119D-03-0.516D-03 0.408D-03
 Coeff:      0.849D-02 0.486D-02-0.433D-01-0.101D+00 0.992D-02 0.112D+01
 Gap=     0.309 Goal=   None    Shift=    0.000
 RMSDP=3.59D-07 MaxDP=2.23D-05 DE=-6.37D-10 OVMax= 8.50D-06

 Cycle  13  Pass 1  IDiag  1:
 RMSU=  1.26D-07    CP:  6.28D-01  1.63D+00  4.25D-01  8.30D-01  1.23D+00
                    CP:  1.22D+00  1.17D+00  1.15D+00  1.26D+00  1.26D+00
                    CP:  1.23D+00  1.33D+00
 E= -460.891752735551     Delta-E=       -0.000000000106 Rises=F Damp=F
 DIIS: error= 2.51D-07 at cycle  13 NSaved=  13.
 NSaved=13 IEnMin=13 EnMin= -460.891752735551     IErMin=13 ErrMin= 2.51D-07
 ErrMax= 2.51D-07  0.00D+00 EMaxC= 1.00D-01 BMatC= 4.62D-12 BMatP= 1.83D-11
 IDIUse=1 WtCom= 1.00D+00 WtEn= 0.00D+00
 Coeff-Com: -0.104D-04 0.226D-04 0.109D-04-0.509D-04-0.562D-03-0.370D-03
 Coeff-Com:  0.445D-02 0.763D-02-0.933D-02-0.643D-01-0.787D-01 0.423D+00
 Coeff-Com:  0.718D+00
 Coeff:     -0.104D-04 0.226D-04 0.109D-04-0.509D-04-0.562D-03-0.370D-03
 Coeff:      0.445D-02 0.763D-02-0.933D-02-0.643D-01-0.787D-01 0.423D+00
 Coeff:      0.718D+00
 Gap=     0.309 Goal=   None    Shift=    0.000
 RMSDP=8.76D-08 MaxDP=5.82D-06 DE=-1.06D-10 OVMax= 2.06D-06

 Cycle  14  Pass 1  IDiag  1:
 RMSU=  4.04D-08    CP:  6.28D-01  1.63D+00  4.25D-01  8.30D-01  1.23D+00
                    CP:  1.22D+00  1.17D+00  1.15D+00  1.26D+00  1.26D+00
                    CP:  1.25D+00  1.40D+00  1.18D+00
 E= -460.891752735551     Delta-E=       -0.000000000000 Rises=F Damp=F
 DIIS: error= 9.36D-08 at cycle  14 NSaved=  14.
 NSaved=14 IEnMin=14 EnMin= -460.891752735551     IErMin=14 ErrMin= 9.36D-08
 ErrMax= 9.36D-08  0.00D+00 EMaxC= 1.00D-01 BMatC= 7.45D-13 BMatP= 4.62D-12
 IDIUse=1 WtCom= 1.00D+00 WtEn= 0.00D+00
 Coeff-Com: -0.313D-05 0.664D-05 0.535D-05 0.128D-05-0.442D-04-0.165D-03
 Coeff-Com: -0.525D-03 0.106D-02 0.513D-02 0.328D-02-0.262D-01-0.111D+00
 Coeff-Com:  0.206D+00 0.922D+00
 Coeff:     -0.313D-05 0.664D-05 0.535D-05 0.128D-05-0.442D-04-0.165D-03
 Coeff:     -0.525D-03 0.106D-02 0.513D-02 0.328D-02-0.262D-01-0.111D+00
 Coeff:      0.206D+00 0.922D+00
 Gap=     0.309 Goal=   None    Shift=    0.000
 RMSDP=4.87D-08 MaxDP=2.17D-06 DE=-2.27D-13 OVMax= 1.29D-06

 Cycle  15  Pass 1  IDiag  1:
 RMSU=  1.73D-08    CP:  6.28D-01  1.63D+00  4.25D-01  8.30D-01  1.23D+00
                    CP:  1.22D+00  1.17D+00  1.15D+00  1.26D+00  1.26D+00
                    CP:  1.25D+00  1.42D+00  1.29D+00  1.11D+00
 E= -460.891752735553     Delta-E=       -0.000000000002 Rises=F Damp=F
 DIIS: error= 3.16D-08 at cycle  15 NSaved=  15.
 NSaved=15 IEnMin=15 EnMin= -460.891752735553     IErMin=15 ErrMin= 3.16D-08
 ErrMax= 3.16D-08  0.00D+00 EMaxC= 1.00D-01 BMatC= 1.19D-13 BMatP= 7.45D-13
 IDIUse=1 WtCom= 1.00D+00 WtEn= 0.00D+00
 Coeff-Com: -0.114D-06 0.155D-06 0.897D-06 0.663D-05 0.545D-04-0.116D-04
 Coeff-Com: -0.737D-03-0.566D-03 0.239D-02 0.886D-02 0.276D-02-0.911D-01
 Coeff-Com: -0.446D-01 0.284D+00 0.839D+00
 Coeff:     -0.114D-06 0.155D-06 0.897D-06 0.663D-05 0.545D-04-0.116D-04
 Coeff:     -0.737D-03-0.566D-03 0.239D-02 0.886D-02 0.276D-02-0.911D-01
 Coeff:     -0.446D-01 0.284D+00 0.839D+00
 Gap=     0.309 Goal=   None    Shift=    0.000
 RMSDP=2.24D-08 MaxDP=1.24D-06 DE=-2.16D-12 OVMax= 5.10D-07

 Cycle  16  Pass 1  IDiag  1:
 RMSU=  7.08D-09    CP:  6.28D-01  1.63D+00  4.25D-01  8.30D-01  1.23D+00
                    CP:  1.22D+00  1.17D+00  1.15D+00  1.26D+00  1.26D+00
                    CP:  1.25D+00  1.42D+00  1.34D+00  1.23D+00  1.23D+00
 E= -460.891752735563     Delta-E=       -0.000000000010 Rises=F Damp=F
 DIIS: error= 1.47D-08 at cycle  16 NSaved=  16.
 NSaved=16 IEnMin=16 EnMin= -460.891752735563     IErMin=16 ErrMin= 1.47D-08
 ErrMax= 1.47D-08  0.00D+00 EMaxC= 1.00D-01 BMatC= 2.32D-14 BMatP= 1.19D-13
 IDIUse=1 WtCom= 1.00D+00 WtEn= 0.00D+00
 Coeff-Com:  0.620D-06-0.135D-05-0.856D-06 0.189D-05 0.303D-04 0.361D-04
 Coeff-Com: -0.166D-03-0.411D-03-0.117D-03 0.292D-02 0.788D-02-0.118D-01
 Coeff-Com: -0.686D-01-0.803D-01 0.272D+00 0.879D+00
 Coeff:      0.620D-06-0.135D-05-0.856D-06 0.189D-05 0.303D-04 0.361D-04
 Coeff:     -0.166D-03-0.411D-03-0.117D-03 0.292D-02 0.788D-02-0.118D-01
 Coeff:     -0.686D-01-0.803D-01 0.272D+00 0.879D+00
 Gap=     0.309 Goal=   None    Shift=    0.000
 RMSDP=1.24D-08 MaxDP=7.26D-07 DE=-9.66D-12 OVMax= 2.27D-07

 Cycle  17  Pass 1  IDiag  1:
 RMSU=  2.88D-09    CP:  6.28D-01  1.63D+00  4.25D-01  8.30D-01  1.23D+00
                    CP:  1.22D+00  1.17D+00  1.15D+00  1.26D+00  1.26D+00
                    CP:  1.25D+00  1.42D+00  1.35D+00  1.28D+00  1.37D+00
                    CP:  1.22D+00
 E= -460.891752735559     Delta-E=        0.000000000004 Rises=F Damp=F
 DIIS: error= 5.83D-09 at cycle  17 NSaved=  17.
 NSaved=17 IEnMin=16 EnMin= -460.891752735563     IErMin=17 ErrMin= 5.83D-09
 ErrMax= 5.83D-09  0.00D+00 EMaxC= 1.00D-01 BMatC= 1.53D-15 BMatP= 2.32D-14
 IDIUse=1 WtCom= 1.00D+00 WtEn= 0.00D+00
 Large coefficients: NSaved= 17 BigCof=    0.00 CofMax=   10.00 Det=-8.32D-15
 Inversion failed.  Reducing to 16 matrices.
 Large coefficients: NSaved= 16 BigCof=    0.00 CofMax=   10.00 Det=-8.68D-15
 Inversion failed.  Reducing to 15 matrices.
 Coeff-Com: -0.986D-07-0.594D-06-0.539D-05 0.479D-05 0.724D-04 0.578D-04
 Coeff-Com: -0.314D-03-0.117D-02 0.509D-03 0.112D-01-0.116D-02-0.289D-01
 Coeff-Com: -0.930D-01 0.303D-01 0.108D+01
 Coeff:     -0.986D-07-0.594D-06-0.539D-05 0.479D-05 0.724D-04 0.578D-04
 Coeff:     -0.314D-03-0.117D-02 0.509D-03 0.112D-01-0.116D-02-0.289D-01
 Coeff:     -0.930D-01 0.303D-01 0.108D+01
 Gap=     0.309 Goal=   None    Shift=    0.000
 RMSDP=2.47D-09 MaxDP=1.51D-07 DE= 3.98D-12 OVMax= 7.11D-08

 SCF Done:  E(RwB97XD) =  -460.891752736     A.U. after   17 cycles
            NFock= 17  Conv=0.25D-08     -V/T= 1.9983
 KE= 4.616702007021D+02 PE=-2.199424749916D+03 EE= 7.144853116947D+02
 Leave Link  502 at Mon Nov 21 14:52:18 2022, MaxMem= 16106127360 cpu:             760.6 elap:              23.8
 (Enter /opt/ap/G16/B01/g16/l601.exe)
 Copying SCF densities to generalized density rwf, IOpCl= 0 IROHF=0.

 **********************************************************************

            Population analysis using the SCF Density.

 **********************************************************************

 Orbital symmetries:
       Occupied  (A) (A) (A) (A) (A) (A) (A) (A) (A) (A) (A) (A)
                 (A) (A) (A) (A) (A) (A) (A) (A) (A) (A) (A) (A)
                 (A) (A) (A) (A) (A) (A) (A) (A) (A) (A) (A) (A)
                 (A) (A)
       Virtual   (A) (A) (A) (A) (A) (A) (A) (A) (A) (A) (A) (A)
                 (A) (A) (A) (A) (A) (A) (A) (A) (A) (A) (A) (A)
                 (A) (A) (A) (A) (A) (A) (A) (A) (A) (A) (A) (A)
                 (A) (A) (A) (A) (A) (A) (A) (A) (A) (A) (A) (A)
                 (A) (A) (A) (A) (A) (A) (A) (A) (A) (A) (A) (A)
                 (A) (A) (A) (A) (A) (A) (A) (A) (A) (A) (A) (A)
                 (A) (A) (A) (A) (A) (A) (A) (A) (A) (A) (A) (A)
                 (A) (A) (A) (A) (A) (A) (A) (A) (A) (A) (A) (A)
                 (A) (A) (A) (A) (A) (A) (A) (A) (A) (A) (A) (A)
                 (A) (A) (A) (A) (A) (A) (A) (A) (A) (A) (A) (A)
                 (A) (A) (A) (A) (A) (A) (A) (A) (A) (A) (A) (A)
                 (A) (A) (A) (A) (A) (A) (A) (A) (A) (A) (A) (A)
                 (A) (A) (A) (A) (A) (A) (A) (A) (A) (A) (A) (A)
                 (A) (A) (A) (A) (A) (A) (A) (A) (A) (A) (A) (A)
                 (A) (A) (A) (A) (A) (A) (A) (A) (A) (A) (A) (A)
                 (A) (A) (A) (A) (A) (A) (A) (A) (A) (A) (A) (A)
                 (A) (A) (A) (A) (A) (A) (A) (A) (A) (A) (A) (A)
                 (A) (A) (A) (A) (A) (A) (A) (A) (A) (A) (A) (A)
                 (A) (A) (A) (A) (A) (A) (A) (A) (A) (A) (A) (A)
                 (A) (A) (A) (A) (A) (A) (A) (A) (A) (A) (A) (A)
                 (A) (A) (A) (A) (A) (A) (A) (A) (A) (A) (A) (A)
                 (A) (A) (A) (A) (A) (A)
 The electronic state is 1-A.
 Alpha  occ. eigenvalues --  -19.26579 -10.35131 -10.29575 -10.29368 -10.27090
 Alpha  occ. eigenvalues --  -10.26920 -10.26819 -10.26728 -10.26566 -10.26505
 Alpha  occ. eigenvalues --  -10.26360  -1.19943  -0.98610  -0.94001  -0.88407
 Alpha  occ. eigenvalues --   -0.86114  -0.83882  -0.75407  -0.73805  -0.72140
 Alpha  occ. eigenvalues --   -0.66371  -0.64399  -0.61836  -0.59545  -0.55660
 Alpha  occ. eigenvalues --   -0.54027  -0.52739  -0.51974  -0.51145  -0.48720
 Alpha  occ. eigenvalues --   -0.47355  -0.45471  -0.43003  -0.42710  -0.41475
 Alpha  occ. eigenvalues --   -0.35300  -0.32537  -0.28598
 Alpha virt. eigenvalues --    0.02261   0.03932   0.04573   0.04705   0.05032
 Alpha virt. eigenvalues --    0.06209   0.06564   0.08644   0.08740   0.09126
 Alpha virt. eigenvalues --    0.10582   0.11576   0.12262   0.13153   0.13804
 Alpha virt. eigenvalues --    0.14952   0.15096   0.15769   0.16024   0.16743
 Alpha virt. eigenvalues --    0.16834   0.17011   0.17896   0.18088   0.18352
 Alpha virt. eigenvalues --    0.18587   0.19389   0.19510   0.20059   0.20729
 Alpha virt. eigenvalues --    0.21484   0.21884   0.22440   0.22499   0.22892
 Alpha virt. eigenvalues --    0.24685   0.25821   0.25899   0.26242   0.27037
 Alpha virt. eigenvalues --    0.27474   0.29119   0.29726   0.30083   0.30311
 Alpha virt. eigenvalues --    0.31362   0.31748   0.32231   0.32747   0.33752
 Alpha virt. eigenvalues --    0.33846   0.34737   0.35293   0.35625   0.36076
 Alpha virt. eigenvalues --    0.36679   0.37105   0.37834   0.38954   0.39409
 Alpha virt. eigenvalues --    0.39937   0.41071   0.41805   0.42631   0.43161
 Alpha virt. eigenvalues --    0.44339   0.44814   0.46269   0.47858   0.49098
 Alpha virt. eigenvalues --    0.51109   0.57398   0.58438   0.60111   0.61311
 Alpha virt. eigenvalues --    0.62054   0.62768   0.65502   0.66091   0.66390
 Alpha virt. eigenvalues --    0.67298   0.67535   0.68399   0.68891   0.70166
 Alpha virt. eigenvalues --    0.70619   0.71352   0.71859   0.72155   0.72506
 Alpha virt. eigenvalues --    0.75066   0.75381   0.76889   0.78840   0.80877
 Alpha virt. eigenvalues --    0.82254   0.83190   0.85157   0.87035   0.87618
 Alpha virt. eigenvalues --    0.89356   0.90755   0.91838   0.92691   0.93441
 Alpha virt. eigenvalues --    0.96064   0.96850   0.97413   1.00044   1.00786
 Alpha virt. eigenvalues --    1.01346   1.02488   1.03984   1.05309   1.06186
 Alpha virt. eigenvalues --    1.06831   1.07417   1.10246   1.12175   1.12930
 Alpha virt. eigenvalues --    1.14617   1.15633   1.18539   1.19044   1.20274
 Alpha virt. eigenvalues --    1.21121   1.22638   1.23702   1.24018   1.25333
 Alpha virt. eigenvalues --    1.28501   1.33347   1.35527   1.43201   1.46042
 Alpha virt. eigenvalues --    1.49318   1.56628   1.57573   1.58036   1.59312
 Alpha virt. eigenvalues --    1.62047   1.62437   1.63608   1.63831   1.70442
 Alpha virt. eigenvalues --    1.70672   1.71097   1.71594   1.72270   1.76416
 Alpha virt. eigenvalues --    1.77374   1.77862   1.80213   1.81557   1.89033
 Alpha virt. eigenvalues --    1.89795   1.90572   1.92583   1.93183   1.93754
 Alpha virt. eigenvalues --    1.96286   1.97552   1.98325   2.00312   2.03452
 Alpha virt. eigenvalues --    2.05239   2.05322   2.07883   2.09085   2.09427
 Alpha virt. eigenvalues --    2.10026   2.12512   2.13700   2.15887   2.19987
 Alpha virt. eigenvalues --    2.24627   2.27603   2.28817   2.30263   2.34840
 Alpha virt. eigenvalues --    2.38227   2.39658   2.40961   2.49099   2.51321
 Alpha virt. eigenvalues --    2.52364   2.54120   2.54757   2.55949   2.58144
 Alpha virt. eigenvalues --    2.64884   2.67427   2.73070   2.73660   2.76166
 Alpha virt. eigenvalues --    2.80985   2.82047   2.84997   2.88238   2.88917
 Alpha virt. eigenvalues --    2.93544   2.94165   2.95668   2.99559   3.01377
 Alpha virt. eigenvalues --    3.03039   3.03732   3.04700   3.06948   3.07738
 Alpha virt. eigenvalues --    3.08856   3.11831   3.17169   3.18885   3.19766
 Alpha virt. eigenvalues --    3.22367   3.24397   3.28553   3.30242   3.35617
 Alpha virt. eigenvalues --    3.36335   3.40381   3.48284   3.50095   3.53593
 Alpha virt. eigenvalues --    3.56056   3.63390   3.74093   3.77409   3.80249
 Alpha virt. eigenvalues --    3.84324   3.89769   3.90701   4.00011   4.15730
 Alpha virt. eigenvalues --    4.29323   4.43793   4.44775   4.46088   4.52365
 Alpha virt. eigenvalues --    4.57759   4.62399   4.94707   4.97668   5.16344
 Alpha virt. eigenvalues --    5.65504   6.16956  23.80334  24.05906  24.16023
 Alpha virt. eigenvalues --   24.17701  24.22092  24.26841  24.41064  24.44907
 Alpha virt. eigenvalues --   24.51958  24.53865  50.17949
          Condensed to atoms (all electrons):
               1          2          3          4          5          6
     1  C   26.519741  -2.590609  -5.535127  -6.044338  -1.949107  -0.029079
     2  C   -2.590609  21.159805  -4.964193  -0.300131  -2.542784  -3.965022
     3  C   -5.535127  -4.964193  15.330405   2.645979  -0.246504  -0.726141
     4  C   -6.044338  -0.300131   2.645979  11.174534  -0.188256  -1.089629
     5  C   -1.949107  -2.542784  -0.246504  -0.188256   9.024782   2.341073
     6  C   -0.029079  -3.965022  -0.726141  -1.089629   2.341073  10.601276
     7  C   -5.969226  -0.784588   1.666940   0.038492   0.159536  -0.824291
     8  O   -0.430113  -0.244830   0.680345  -0.003365  -0.021684   0.142246
     9  C    1.918516  -0.295619  -1.520124  -0.756676  -0.175524   0.651672
    10  H   -0.165975  -0.005398   0.089243   0.556277   0.024066  -0.065578
    11  C   -0.255139  -0.095273   0.129650   0.111255   0.226039  -0.889872
    12  H   -0.020215  -0.057146  -0.041820  -0.009827   0.506253   0.072843
    13  C   -0.380178   1.003273  -0.851135   0.375642  -0.971120  -0.738937
    14  H    0.350179   0.168676  -0.432199  -0.037345   0.038331   0.439330
    15  H   -0.040825   0.007197  -0.151046  -0.006423  -0.021227  -0.009921
    16  H    0.031459  -0.034174   0.126029   0.011265   0.002725   0.006653
    17  H    0.122292   0.004629  -0.009312  -0.147162   0.015469   0.014625
    18  H   -0.035186   0.060640  -0.040108   0.023589  -0.052565  -0.024071
    19  H    0.025379  -0.075704   0.081761  -0.018878  -0.030544  -0.050307
               7          8          9         10         11         12
     1  C   -5.969226  -0.430113   1.918516  -0.165975  -0.255139  -0.020215
     2  C   -0.784588  -0.244830  -0.295619  -0.005398  -0.095273  -0.057146
     3  C    1.666940   0.680345  -1.520124   0.089243   0.129650  -0.041820
     4  C    0.038492  -0.003365  -0.756676   0.556277   0.111255  -0.009827
     5  C    0.159536  -0.021684  -0.175524   0.024066   0.226039   0.506253
     6  C   -0.824291   0.142246   0.651672  -0.065578  -0.889872   0.072843
     7  C   12.683160  -0.145941  -0.514803   0.078422   0.042779   0.003278
     8  O   -0.145941   8.025912   0.017718   0.000267  -0.002363   0.000206
     9  C   -0.514803   0.017718   6.770832  -0.180033  -0.375135   0.045659
    10  H    0.078422   0.000267  -0.180033   0.509569   0.050520  -0.002832
    11  C    0.042779  -0.002363  -0.375135   0.050520   6.337766  -0.124183
    12  H    0.003278   0.000206   0.045659  -0.002832  -0.124183   0.506888
    13  C   -0.571838   0.042752   0.096982  -0.000698   0.624939  -0.006958
    14  H   -0.201237  -0.039303   0.036010  -0.001279   0.026575   0.001530
    15  H    0.598589  -0.017765  -0.021730   0.001767  -0.001620  -0.000326
    16  H   -0.092870   0.251389  -0.006970   0.000335  -0.001255   0.000055
    17  H   -0.164460   0.000125   0.499875  -0.024228  -0.001439   0.001085
    18  H   -0.012756  -0.000267   0.008560   0.000160   0.462830  -0.018882
    19  H    0.029048   0.003031  -0.006941  -0.000056  -0.055795   0.000297
              13         14         15         16         17         18
     1  C   -0.380178   0.350179  -0.040825   0.031459   0.122292  -0.035186
     2  C    1.003273   0.168676   0.007197  -0.034174   0.004629   0.060640
     3  C   -0.851135  -0.432199  -0.151046   0.126029  -0.009312  -0.040108
     4  C    0.375642  -0.037345  -0.006423   0.011265  -0.147162   0.023589
     5  C   -0.971120   0.038331  -0.021227   0.002725   0.015469  -0.052565
     6  C   -0.738937   0.439330  -0.009921   0.006653   0.014625  -0.024071
     7  C   -0.571838  -0.201237   0.598589  -0.092870  -0.164460  -0.012756
     8  O    0.042752  -0.039303  -0.017765   0.251389   0.000125  -0.000267
     9  C    0.096982   0.036010  -0.021730  -0.006970   0.499875   0.008560
    10  H   -0.000698  -0.001279   0.001767   0.000335  -0.024228   0.000160
    11  C    0.624939   0.026575  -0.001620  -0.001255  -0.001439   0.462830
    12  H   -0.006958   0.001530  -0.000326   0.000055   0.001085  -0.018882
    13  C    7.254339  -0.033045   0.005269  -0.016937  -0.000187  -0.045245
    14  H   -0.033045   0.526116  -0.001573  -0.003004   0.001629   0.003386
    15  H    0.005269  -0.001573   0.521871  -0.003802  -0.015723  -0.000125
    16  H   -0.016937  -0.003004  -0.003802   0.452326   0.000438  -0.000111
    17  H   -0.000187   0.001629  -0.015723   0.000438   0.512822   0.000209
    18  H   -0.045245   0.003386  -0.000125  -0.000111   0.000209   0.506189
    19  H    0.448157  -0.025760   0.000289   0.000109  -0.000228  -0.014876
              19
     1  C    0.025379
     2  C   -0.075704
     3  C    0.081761
     4  C   -0.018878
     5  C   -0.030544
     6  C   -0.050307
     7  C    0.029048
     8  O    0.003031
     9  C   -0.006941
    10  H   -0.000056
    11  C   -0.055795
    12  H    0.000297
    13  C    0.448157
    14  H   -0.025760
    15  H    0.000289
    16  H    0.000109
    17  H   -0.000228
    18  H   -0.014876
    19  H    0.506294
 Mulliken charges:
               1
     1  C    0.477550
     2  C   -0.448749
     3  C   -0.232641
     4  C   -0.335000
     5  C   -0.138958
     6  C    0.143129
     7  C   -0.018235
     8  O   -0.258359
     9  C   -0.192269
    10  H    0.135453
    11  C   -0.210279
    12  H    0.144095
    13  C   -0.235074
    14  H    0.182983
    15  H    0.157125
    16  H    0.276341
    17  H    0.189540
    18  H    0.178626
    19  H    0.184723
 Sum of Mulliken charges =  -0.00000
 Mulliken charges with hydrogens summed into heavy atoms:
               1
     1  C    0.477550
     2  C   -0.448749
     3  C   -0.232641
     4  C   -0.199547
     5  C    0.005137
     6  C    0.326112
     7  C    0.138890
     8  O    0.017982
     9  C   -0.002729
    11  C   -0.031653
    13  C   -0.050352
 Electronic spatial extent (au):  <R**2>=           1509.0489
 Charge=             -0.0000 electrons
 Dipole moment (field-independent basis, Debye):
    X=             -0.8021    Y=             -0.5086    Z=              0.6629  Tot=              1.1582
 Quadrupole moment (field-independent basis, Debye-Ang):
   XX=            -50.3704   YY=            -58.4232   ZZ=            -67.5743
   XY=             -1.2430   XZ=             -1.7919   YZ=              1.7311
 Traceless Quadrupole moment (field-independent basis, Debye-Ang):
   XX=              8.4189   YY=              0.3661   ZZ=             -8.7850
   XY=             -1.2430   XZ=             -1.7919   YZ=              1.7311
 Octapole moment (field-independent basis, Debye-Ang**2):
  XXX=            -17.3558  YYY=             -1.2376  ZZZ=              0.3704  XYY=             -3.8925
  XXY=             11.3004  XXZ=              4.5606  XZZ=             -4.3396  YZZ=              5.3994
  YYZ=              4.4110  XYZ=             -4.7524
 Hexadecapole moment (field-independent basis, Debye-Ang**3):
 XXXX=          -1064.8203 YYYY=           -670.6037 ZZZZ=            -77.3862 XXXY=            -37.9880
 XXXZ=            -11.1869 YYYX=            -14.9066 YYYZ=             10.5611 ZZZX=             -1.3213
 ZZZY=              1.3320 XXYY=           -272.8358 XXZZ=           -237.4021 YYZZ=           -140.4598
 XXYZ=             11.4337 YYXZ=            -10.9833 ZZXY=             -9.7823
 N-N= 5.623774847840D+02 E-N=-2.199424749794D+03  KE= 4.616702007021D+02
 No NMR shielding tensors so no spin-rotation constants.
 Leave Link  601 at Mon Nov 21 14:52:19 2022, MaxMem= 16106127360 cpu:               4.1 elap:               0.2
 (Enter /opt/ap/G16/B01/g16/l9999.exe)
 1\1\GINC-N11\SP\RwB97XD\6-311++G(d,p)\C10H8O1\ROOT\21-Nov-2022\0\\#P w
 B97XD/6-311++G(d,p) scf=maxcycle=512\\_conf006.gjf nmol_natom 1_19\\0,
 1\C\C,1,1.40879539\C,1,1.42289824,2,117.24956717\C,2,1.41887971,1,119.
 07594714,3,0.16510261,0\C,2,1.42227783,1,117.46262303,3,-179.44443577,
 0\C,1,1.42440336,2,119.00293897,4,179.73740031,0\C,3,1.35510367,1,122.
 33979448,2,-0.36120568,0\O,3,1.37615658,1,115.04370777,2,-179.5931286,
 0\C,4,1.34577659,2,121.30210156,1,0.17277764,0\H,4,0.93023405,2,119.33
 469462,1,-179.75965297,0\C,5,1.34486794,2,122.06073707,1,-0.32265162,0
 \H,5,0.92957893,2,118.96449269,1,179.64671542,0\C,6,1.35980576,1,121.1
 112438,2,0.11625163,0\H,6,0.92999796,1,119.43671105,2,-179.87270235,0\
 H,7,0.93052813,3,120.28038366,1,-179.76477098,0\H,8,0.81991994,3,109.4
 8785721,1,-150.,0\H,9,0.93027331,4,119.71917791,2,179.60144151,0\H,11,
 0.92987565,5,119.70372857,2,-179.69197286,0\H,13,0.93032717,6,120.1452
 4692,1,179.85241379,0\\Version=ES64L-G16RevB.01\State=1-A\HF=-460.8917
 527\RMSD=2.469e-09\Dipole=0.355371,-0.2589032,0.1196506\Quadrupole=5.4
 844634,-6.5184962,1.0340329,-0.9565614,-2.2175262,1.6090194\PG=C01 [X(
 C10H8O1)]\\@


 THE MOST SERIOUS THREAT TO THE SURVIVAL OF MANKIND IS NOT NOW
 IGNORANCE IN THE TRADITIONAL SENSE,
 BUT A MORALLY NEUTRAL, AN INSENSITIVE OR INHIBITED HUMAN INTELLIGENCE.

                     -- MARGO JEFFERSON IN NEWSWEEK, SEPTEMBER 2, 1974
 Job cpu time:       0 days  0 hours 13 minutes 19.9 seconds.
 Elapsed time:       0 days  0 hours  0 minutes 25.1 seconds.
 File lengths (MBytes):  RWF=     51 Int=      0 D2E=      0 Chk=      6 Scr=      1
 Normal termination of Gaussian 16 at Mon Nov 21 14:52:19 2022.
