 Entering Gaussian System, Link 0=g16
 Input=_conf029.gjf
 Output=_conf029.log
 Initial command:
 /opt/ap/G16/B01/g16/l1.exe "/tmp2/scr/Gau-9234.inp" -scrdir="/tmp2/scr/"
 Entering Link 1 = /opt/ap/G16/B01/g16/l1.exe PID=      9235.
  
 Copyright (c) 1988-2017, Gaussian, Inc.  All Rights Reserved.
  
 This is part of the Gaussian(R) 16 program.  It is based on
 the Gaussian(R) 09 system (copyright 2009, Gaussian, Inc.),
 the Gaussian(R) 03 system (copyright 2003, Gaussian, Inc.),
 the Gaussian(R) 98 system (copyright 1998, Gaussian, Inc.),
 the Gaussian(R) 94 system (copyright 1995, Gaussian, Inc.),
 the Gaussian 92(TM) system (copyright 1992, Gaussian, Inc.),
 the Gaussian 90(TM) system (copyright 1990, Gaussian, Inc.),
 the Gaussian 88(TM) system (copyright 1988, Gaussian, Inc.),
 the Gaussian 86(TM) system (copyright 1986, Carnegie Mellon
 University), and the Gaussian 82(TM) system (copyright 1983,
 Carnegie Mellon University). Gaussian is a federally registered
 trademark of Gaussian, Inc.
  
 This software contains proprietary and confidential information,
 including trade secrets, belonging to Gaussian, Inc.
  
 This software is provided under written license and may be
 used, copied, transmitted, or stored only in accord with that
 written license.
  
 The following legend is applicable only to US Government
 contracts under FAR:
  
                    RESTRICTED RIGHTS LEGEND
  
 Use, reproduction and disclosure by the US Government is
 subject to restrictions as set forth in subparagraphs (a)
 and (c) of the Commercial Computer Software - Restricted
 Rights clause in FAR 52.227-19.
  
 Gaussian, Inc.
 340 Quinnipiac St., Bldg. 40, Wallingford CT 06492
  
  
 ---------------------------------------------------------------
 Warning -- This program may not be used in any manner that
 competes with the business of Gaussian, Inc. or will provide
 assistance to any competitor of Gaussian, Inc.  The licensee
 of this program is prohibited from giving any competitor of
 Gaussian, Inc. access to this program.  By using this program,
 the user acknowledges that Gaussian, Inc. is engaged in the
 business of creating and licensing software in the field of
 computational chemistry and represents and warrants to the
 licensee that it is not a competitor of Gaussian, Inc. and that
 it will not use this program in any manner prohibited above.
 ---------------------------------------------------------------
  

 Cite this work as:
 Gaussian 16, Revision B.01,
 M. J. Frisch, G. W. Trucks, H. B. Schlegel, G. E. Scuseria, 
 M. A. Robb, J. R. Cheeseman, G. Scalmani, V. Barone, 
 G. A. Petersson, H. Nakatsuji, X. Li, M. Caricato, A. V. Marenich, 
 J. Bloino, B. G. Janesko, R. Gomperts, B. Mennucci, H. P. Hratchian, 
 J. V. Ortiz, A. F. Izmaylov, J. L. Sonnenberg, D. Williams-Young, 
 F. Ding, F. Lipparini, F. Egidi, J. Goings, B. Peng, A. Petrone, 
 T. Henderson, D. Ranasinghe, V. G. Zakrzewski, J. Gao, N. Rega, 
 G. Zheng, W. Liang, M. Hada, M. Ehara, K. Toyota, R. Fukuda, 
 J. Hasegawa, M. Ishida, T. Nakajima, Y. Honda, O. Kitao, H. Nakai, 
 T. Vreven, K. Throssell, J. A. Montgomery, Jr., J. E. Peralta, 
 F. Ogliaro, M. J. Bearpark, J. J. Heyd, E. N. Brothers, K. N. Kudin, 
 V. N. Staroverov, T. A. Keith, R. Kobayashi, J. Normand, 
 K. Raghavachari, A. P. Rendell, J. C. Burant, S. S. Iyengar, 
 J. Tomasi, M. Cossi, J. M. Millam, M. Klene, C. Adamo, R. Cammi, 
 J. W. Ochterski, R. L. Martin, K. Morokuma, O. Farkas, 
 J. B. Foresman, and D. J. Fox, Gaussian, Inc., Wallingford CT, 2016.
 
 ******************************************
 Gaussian 16:  ES64L-G16RevB.01 20-Dec-2017
                21-Nov-2022 
 ******************************************
 %nprocshared=32
 Will use up to   32 processors via shared memory.
 %mem=120GB
 %chk=_conf029.chk
 ----------------------------------------
 #P wB97XD/6-311++G(d,p) scf=maxcycle=512
 ----------------------------------------
 1/38=1,172=1/1;
 2/12=2,17=6,18=5,40=1/2;
 3/5=4,6=6,7=1111,11=2,25=1,30=1,74=-58/1,2,3;
 4//1;
 5/5=2,7=512,38=5/2;
 6/7=2,8=2,9=2,10=2,28=1/1;
 99/5=1,9=1/99;
 Leave Link    1 at Mon Nov 21 14:54:30 2022, MaxMem= 16106127360 cpu:               1.6 elap:               0.1
 (Enter /opt/ap/G16/B01/g16/l101.exe)
 ----------------------------
 _conf029.gjf nmol_natom 1_19
 ----------------------------
 Symbolic Z-matrix:
 Charge =  0 Multiplicity = 1
 C
 C                    1     1.4088 
 C                    1     1.4229   2     117.24957 
 C                    2     1.41888  1     119.07595  3     0.1651   0
 C                    2     1.42228  1     117.46262  3    -179.44444  0
 C                    1     1.4244   2     119.00294  4     179.7374  0
 C                    3     1.3551   1     122.33979  2    -0.36121  0
 O                    3     1.37616  1     115.04371  2    -179.59313  0
 C                    4     1.34578  2     121.3021  1     0.17278  0
 H                    4     0.93023  2     119.33469  1    -179.75965  0
 C                    5     1.34487  2     122.06074  1    -0.32265  0
 H                    5     0.92958  2     118.96449  1     179.64672  0
 C                    6     1.35981  1     121.11124  2     0.11625  0
 H                    6     0.93     1     119.43671  2    -179.8727  0
 H                    7     0.93053  3     120.28038  1    -179.76477  0
 H                    8     0.81992  3     109.48786  1    -35.      0
 H                    9     0.93027  4     119.71918  2     179.60144  0
 H                    11    0.92988  5     119.70373  2    -179.69197  0
 H                    13    0.93033  6     120.14525  1     179.85241  0
 
 ITRead=  0  0  0  0  0  0  0  0  0  0  0  0  0  0  0  0  0  0  0
 MicOpt= -1 -1 -1 -1 -1 -1 -1 -1 -1 -1 -1 -1 -1 -1 -1 -1 -1 -1 -1
 NAtoms=     19 NQM=       19 NQMF=       0 NMMI=      0 NMMIF=      0
                NMic=       0 NMicF=      0.
                    Isotopes and Nuclear Properties:
 (Nuclear quadrupole moments (NQMom) in fm**2, nuclear magnetic moments (NMagM)
  in nuclear magnetons)

  Atom         1           2           3           4           5           6           7           8           9          10
 IAtWgt=          12          12          12          12          12          12          12          16          12           1
 AtmWgt=  12.0000000  12.0000000  12.0000000  12.0000000  12.0000000  12.0000000  12.0000000  15.9949146  12.0000000   1.0078250
 NucSpn=           0           0           0           0           0           0           0           0           0           1
 AtZEff=  -0.0000000  -0.0000000  -0.0000000  -0.0000000  -0.0000000  -0.0000000  -0.0000000  -0.0000000  -0.0000000  -0.0000000
 NQMom=    0.0000000   0.0000000   0.0000000   0.0000000   0.0000000   0.0000000   0.0000000   0.0000000   0.0000000   0.0000000
 NMagM=    0.0000000   0.0000000   0.0000000   0.0000000   0.0000000   0.0000000   0.0000000   0.0000000   0.0000000   2.7928460
 AtZNuc=   6.0000000   6.0000000   6.0000000   6.0000000   6.0000000   6.0000000   6.0000000   8.0000000   6.0000000   1.0000000

  Atom        11          12          13          14          15          16          17          18          19
 IAtWgt=          12           1          12           1           1           1           1           1           1
 AtmWgt=  12.0000000   1.0078250  12.0000000   1.0078250   1.0078250   1.0078250   1.0078250   1.0078250   1.0078250
 NucSpn=           0           1           0           1           1           1           1           1           1
 AtZEff=  -0.0000000  -0.0000000  -0.0000000  -0.0000000  -0.0000000  -0.0000000  -0.0000000  -0.0000000  -0.0000000
 NQMom=    0.0000000   0.0000000   0.0000000   0.0000000   0.0000000   0.0000000   0.0000000   0.0000000   0.0000000
 NMagM=    0.0000000   2.7928460   0.0000000   2.7928460   2.7928460   2.7928460   2.7928460   2.7928460   2.7928460
 AtZNuc=   6.0000000   1.0000000   6.0000000   1.0000000   1.0000000   1.0000000   1.0000000   1.0000000   1.0000000
 Leave Link  101 at Mon Nov 21 14:54:30 2022, MaxMem= 16106127360 cpu:               5.2 elap:               0.2
 (Enter /opt/ap/G16/B01/g16/l202.exe)
                          Input orientation:                          
 ---------------------------------------------------------------------
 Center     Atomic      Atomic             Coordinates (Angstroms)
 Number     Number       Type             X           Y           Z
 ---------------------------------------------------------------------
      1          6           0        0.000000    0.000000    0.000000
      2          6           0        0.000000    0.000000    1.408795
      3          6           0        1.264986    0.000000   -0.651498
      4          6           0        1.240062    0.003573    2.098326
      5          6           0       -1.261945   -0.012237    2.064707
      6          6           0       -1.245741   -0.009299   -0.690628
      7          6           0        2.433644    0.007218    0.034427
      8          8           0        1.212032    0.008854   -2.026607
      9          6           0        2.409936    0.010412    1.433147
     10          1           0        1.244276    0.000184    3.028545
     11          6           0       -2.421000   -0.017057    1.382624
     12          1           0       -1.286266   -0.017488    2.993953
     13          6           0       -2.424704   -0.015738   -0.013076
     14          1           0       -1.252769   -0.011151   -1.620598
     15          1           0        3.245045    0.010306   -0.421097
     16          1           0        0.567375   -0.430817   -2.278353
     17          1           0        3.210137    0.018260    1.907515
     18          1           0       -3.227740   -0.020753    1.845035
     19          1           0       -3.230632   -0.019714   -0.477804
 ---------------------------------------------------------------------
                    Distance matrix (angstroms):
                    1          2          3          4          5
     1  C    0.000000
     2  C    1.408795   0.000000
     3  C    1.422898   2.417643   0.000000
     4  C    2.437363   1.418880   2.749940   0.000000
     5  C    2.419849   1.422278   3.709892   2.502283   0.000000
     6  C    1.424403   2.441216   2.511049   3.735994   2.755385
     7  C    2.433898   2.794917   1.355104   2.384184   4.216609
     8  O    2.361406   3.642951   1.376157   4.125032   4.781198
     9  C    2.803892   2.410081   2.378396   1.345777   3.725867
    10  H    3.274188   2.042501   3.680101   0.930234   2.685197
    11  C    2.788042   2.421201   4.210040   3.730420   1.344868
    12  H    3.258610   2.041448   4.449551   2.680471   0.929579
    13  C    2.424790   2.810899   3.744548   4.229527   2.381009
    14  H    2.048388   3.278228   2.697845   4.477144   3.685317
    15  H    3.272269   3.725443   1.993445   3.219859   5.147104
    16  H    2.387134   3.755340   1.821790   4.449328   4.731151
    17  H    3.734157   3.248697   3.214420   1.979348   4.474947
    18  H    3.717915   3.257153   5.139815   4.475043   1.978050
    19  H    3.265834   3.741207   4.499015   5.159854   3.215610
                    6          7          8          9         10
     6  C    0.000000
     7  C    3.750180   0.000000
     8  O    2.797466   2.395871   0.000000
     9  C    4.227858   1.398925   3.661267   0.000000
    10  H    4.475771   3.221706   5.055262   1.975895   0.000000
    11  C    2.383205   5.038431   4.982213   4.831278   4.017910
    12  H    3.684813   4.753644   5.607870   4.012331   2.530840
    13  C    1.359806   4.858634   4.157013   5.046383   4.765829
    14  H    0.929998   4.040926   2.498097   4.768777   5.277300
    15  H    4.498910   0.930528   2.590522   2.033624   3.987882
    16  H    2.446617   3.003961   0.819920   4.167127   5.367226
    17  H    5.158096   2.027689   4.412463   0.930273   2.263105
    18  H    3.218391   5.943934   5.890846   5.652788   4.626021
    19  H    1.996295   5.687453   4.704984   5.955556   5.685040
                   11         12         13         14         15
    11  C    0.000000
    12  H    1.970788   0.000000
    13  C    1.395705   3.215317   0.000000
    14  H    3.222443   4.614677   1.989366   0.000000
    15  H    5.946277   5.674162   5.684470   4.655061   0.000000
    16  H    4.743873   5.603930   3.775752   1.980325   3.288450
    17  H    5.655657   4.625934   5.953256   5.689110   2.328887
    18  H    0.929876   2.255958   2.024221   3.988887   6.858080
    19  H    2.028966   3.979153   0.930327   2.284293   6.475995
                   16         17         18         19
    16  H    0.000000
    17  H    4.970649   0.000000
    18  H    5.619020   6.438299   0.000000
    19  H    4.223250   6.868384   2.322841   0.000000
 Stoichiometry    C10H8O
 Framework group  C1[X(C10H8O)]
 Deg. of freedom    51
 Full point group                 C1      NOp   1
 Largest Abelian subgroup         C1      NOp   1
 Largest concise Abelian subgroup C1      NOp   1
                         Standard orientation:                         
 ---------------------------------------------------------------------
 Center     Atomic      Atomic             Coordinates (Angstroms)
 Number     Number       Type             X           Y           Z
 ---------------------------------------------------------------------
      1          6           0        0.026273    0.425707   -0.011424
      2          6           0        0.330380   -0.949837   -0.001383
      3          6           0       -1.349515    0.788808   -0.009412
      4          6           0       -0.731606   -1.890764    0.006483
      5          6           0        1.704196   -1.317804    0.008889
      6          6           0        1.093588    1.368977   -0.013602
      7          6           0       -2.342572   -0.133216   -0.005592
      8          8           0       -1.594677    2.142818   -0.028345
      9          6           0       -2.017503   -1.493833    0.001059
     10          1           0       -0.534909   -2.799909    0.016525
     11          6           0        2.688697   -0.401623    0.002749
     12          1           0        1.928552   -2.219826    0.020635
     13          6           0        2.391029    0.961923   -0.008538
     14          1           0        0.899711    2.278529   -0.018416
     15          1           0       -3.233180    0.136407   -0.007657
     16          1           0       -1.017984    2.531317    0.406122
     17          1           0       -2.696463   -2.129775    0.000803
     18          1           0        3.576244   -0.678972    0.005495
     19          1           0        3.077648    1.589658   -0.012115
 ---------------------------------------------------------------------
 Rotational constants (GHZ):           2.0023022           1.1591811           0.7345507
 Leave Link  202 at Mon Nov 21 14:54:30 2022, MaxMem= 16106127360 cpu:               0.4 elap:               0.0
 (Enter /opt/ap/G16/B01/g16/l301.exe)
 Standard basis: 6-311++G(d,p) (5D, 7F)
 Ernie: Thresh=  0.10000D-02 Tol=  0.10000D-05 Strict=F.
 There are   309 symmetry adapted cartesian basis functions of A   symmetry.
 There are   298 symmetry adapted basis functions of A   symmetry.
   298 basis functions,   468 primitive gaussians,   309 cartesian basis functions
    38 alpha electrons       38 beta electrons
       nuclear repulsion energy       563.3222921876 Hartrees.
 IExCor= 4639 DFT=T Ex+Corr=wB97XD ExCW=0 ScaHFX=  1.000000
 ScaDFX=  1.000000  1.000000  1.000000  1.000000 ScalE2=  1.000000  1.000000
 IRadAn=      5 IRanWt=     -1 IRanGd=            0 ICorTp=0 IEmpDi=121
 HFx  wShort=  0.000000 wLong=  0.200000 cFull=  0.222036 cShort=  0.000000 cLong=  0.777964
 DFx  wShort=  0.000000 wLong=  0.200000 cFull=  0.000000 cShort=  0.000000 cLong=  1.000000
 NAtoms=   19 NActive=   19 NUniq=   19 SFac= 1.00D+00 NAtFMM=   60 NAOKFM=F Big=F
 Integral buffers will be    131072 words long.
 Raffenetti 2 integral format.
 Two-electron integral symmetry is turned on.
 R6Disp:  Grimme-D2 Dispersion energy=       -0.0102657091 Hartrees.
 Nuclear repulsion after empirical dispersion term =      563.3120264785 Hartrees.
 Leave Link  301 at Mon Nov 21 14:54:30 2022, MaxMem= 16106127360 cpu:               1.1 elap:               0.0
 (Enter /opt/ap/G16/B01/g16/l302.exe)
 NPDir=0 NMtPBC=     1 NCelOv=     1 NCel=       1 NClECP=     1 NCelD=      1
         NCelK=      1 NCelE2=     1 NClLst=     1 CellRange=     0.0.
 One-electron integrals computed using PRISM.
 One-electron integral symmetry used in STVInt
 NBasis=   298 RedAO= T EigKep=  1.14D-06  NBF=   298
 NBsUse=   296 1.00D-06 EigRej=  6.38D-07 NBFU=   296
 Precomputing XC quadrature grid using
 IXCGrd= 4 IRadAn=           5 IRanWt=          -1 IRanGd=           0 AccXCQ= 0.00D+00.
 Generated NRdTot=       0 NPtTot=           0 NUsed=           0 NTot=          32
 NSgBfM=   309   309   309   309   309 MxSgAt=    19 MxSgA2=    19.
 Leave Link  302 at Mon Nov 21 14:54:30 2022, MaxMem= 16106127360 cpu:               6.4 elap:               0.2
 (Enter /opt/ap/G16/B01/g16/l303.exe)
 DipDrv:  MaxL=1.
 Leave Link  303 at Mon Nov 21 14:54:30 2022, MaxMem= 16106127360 cpu:               1.4 elap:               0.1
 (Enter /opt/ap/G16/B01/g16/l401.exe)
 ExpMin= 3.60D-02 ExpMax= 8.59D+03 ExpMxC= 1.30D+03 IAcc=3 IRadAn=         5 AccDes= 0.00D+00
 Harris functional with IExCor= 4639 and IRadAn=       5 diagonalized for initial guess.
 HarFok:  IExCor= 4639 AccDes= 0.00D+00 IRadAn=         5 IDoV= 1 UseB2=F ITyADJ=14
 ICtDFT=  3500011 ScaDFX=  1.000000  1.000000  1.000000  1.000000
 FoFCou: FMM=F IPFlag=           0 FMFlag=      100000 FMFlg1=           0
         NFxFlg=           0 DoJE=T BraDBF=F KetDBF=T FulRan=T
         wScrn=  0.000000 ICntrl=       500 IOpCl=  0 I1Cent=   200000004 NGrid=           0
         NMat0=    1 NMatS0=      1 NMatT0=    0 NMatD0=    1 NMtDS0=    0 NMtDT0=    0
 Petite list used in FoFCou.
 Harris En= -440.613258050560    
 JPrj=0 DoOrth=F DoCkMO=F.
 Leave Link  401 at Mon Nov 21 14:54:31 2022, MaxMem= 16106127360 cpu:              16.4 elap:               0.5
 (Enter /opt/ap/G16/B01/g16/l502.exe)
 Integral symmetry usage will be decided dynamically.
 Closed shell SCF:
 Using DIIS extrapolation, IDIIS=  1040.
 NGot= 16106127360 LenX= 16105923535 LenY= 16105827613
 Requested convergence on RMS density matrix=1.00D-08 within 512 cycles.
 Requested convergence on MAX density matrix=1.00D-06.
 Requested convergence on             energy=1.00D-06.
 No special actions if energy rises.
 Fock matrices will be formed incrementally for  20 cycles.

 Cycle   1  Pass 1  IDiag  1:
 FoFJK:  IHMeth= 1 ICntrl=       0 DoSepK=T KAlg= 0 I1Cent=           0 FoldK=F
 IRaf=         1 NMat=       1 IRICut=       1 DoRegI=T DoRafI=F ISym2E= 0 IDoP0=0 IntGTp=1.
 FoFCou: FMM=F IPFlag=           0 FMFlag=      100000 FMFlg1=           0
         NFxFlg=           0 DoJE=T BraDBF=F KetDBF=F FulRan=T
         wScrn=  0.000000 ICntrl=       500 IOpCl=  0 I1Cent=           0 NGrid=           0
         NMat0=    1 NMatS0=      1 NMatT0=    0 NMatD0=    1 NMtDS0=    0 NMtDT0=    0
 Symmetry not used in FoFCou.
 E= -460.748399369396    
 DIIS: error= 5.89D-02 at cycle   1 NSaved=   1.
 NSaved= 1 IEnMin= 1 EnMin= -460.748399369396     IErMin= 1 ErrMin= 5.89D-02
 ErrMax= 5.89D-02  0.00D+00 EMaxC= 1.00D-01 BMatC= 9.59D-01 BMatP= 9.59D-01
 IDIUse=3 WtCom= 4.11D-01 WtEn= 5.89D-01
 Coeff-Com:  0.100D+01
 Coeff-En:   0.100D+01
 Coeff:      0.100D+01
 Gap=     0.335 Goal=   None    Shift=    0.000
 GapD=    0.335 DampG=1.000 DampE=0.500 DampFc=0.5000 IDamp=-1.
 Damping current iteration by 5.00D-01
 RMSDP=4.76D-02 MaxDP=4.91D+00              OVMax= 1.49D-01

 Cycle   2  Pass 1  IDiag  1:
 RMSU=  1.03D-02    CP:  8.23D-01
 E= -460.816587883911     Delta-E=       -0.068188514515 Rises=F Damp=T
 DIIS: error= 2.95D-02 at cycle   2 NSaved=   2.
 NSaved= 2 IEnMin= 2 EnMin= -460.816587883911     IErMin= 2 ErrMin= 2.95D-02
 ErrMax= 2.95D-02  0.00D+00 EMaxC= 1.00D-01 BMatC= 2.08D-01 BMatP= 9.59D-01
 IDIUse=3 WtCom= 7.05D-01 WtEn= 2.95D-01
 Coeff-Com: -0.704D+00 0.170D+01
 Coeff-En:   0.000D+00 0.100D+01
 Coeff:     -0.496D+00 0.150D+01
 Gap=     0.331 Goal=   None    Shift=    0.000
 RMSDP=2.76D-02 MaxDP=3.00D+00 DE=-6.82D-02 OVMax= 1.47D-01

 Cycle   3  Pass 1  IDiag  1:
 RMSU=  6.08D-03    CP:  6.04D-01  1.41D+00
 E= -460.861166712601     Delta-E=       -0.044578828690 Rises=F Damp=F
 DIIS: error= 1.12D-02 at cycle   3 NSaved=   3.
 NSaved= 3 IEnMin= 3 EnMin= -460.861166712601     IErMin= 3 ErrMin= 1.12D-02
 ErrMax= 1.12D-02  0.00D+00 EMaxC= 1.00D-01 BMatC= 2.96D-02 BMatP= 2.08D-01
 IDIUse=3 WtCom= 8.88D-01 WtEn= 1.12D-01
 Coeff-Com: -0.359D+00 0.764D+00 0.595D+00
 Coeff-En:   0.000D+00 0.000D+00 0.100D+01
 Coeff:     -0.319D+00 0.679D+00 0.640D+00
 Gap=     0.313 Goal=   None    Shift=    0.000
 RMSDP=3.98D-03 MaxDP=3.46D-01 DE=-4.46D-02 OVMax= 6.64D-02

 Cycle   4  Pass 1  IDiag  1:
 RMSU=  1.52D-03    CP:  5.85D-01  1.55D+00  6.11D-01
 E= -460.887518557027     Delta-E=       -0.026351844426 Rises=F Damp=F
 DIIS: error= 1.60D-03 at cycle   4 NSaved=   4.
 NSaved= 4 IEnMin= 4 EnMin= -460.887518557027     IErMin= 4 ErrMin= 1.60D-03
 ErrMax= 1.60D-03  0.00D+00 EMaxC= 1.00D-01 BMatC= 1.06D-03 BMatP= 2.96D-02
 IDIUse=3 WtCom= 9.84D-01 WtEn= 1.60D-02
 Coeff-Com: -0.122D+00 0.260D+00 0.291D+00 0.571D+00
 Coeff-En:   0.000D+00 0.000D+00 0.000D+00 0.100D+01
 Coeff:     -0.120D+00 0.256D+00 0.286D+00 0.578D+00
 Gap=     0.306 Goal=   None    Shift=    0.000
 RMSDP=5.28D-04 MaxDP=2.20D-02 DE=-2.64D-02 OVMax= 8.80D-03

 Cycle   5  Pass 1  IDiag  1:
 RMSU=  3.74D-04    CP:  5.85D-01  1.55D+00  6.59D-01  8.48D-01
 E= -460.888497650221     Delta-E=       -0.000979093193 Rises=F Damp=F
 DIIS: error= 2.86D-04 at cycle   5 NSaved=   5.
 NSaved= 5 IEnMin= 5 EnMin= -460.888497650221     IErMin= 5 ErrMin= 2.86D-04
 ErrMax= 2.86D-04  0.00D+00 EMaxC= 1.00D-01 BMatC= 1.71D-05 BMatP= 1.06D-03
 IDIUse=3 WtCom= 9.97D-01 WtEn= 2.86D-03
 Coeff-Com:  0.993D-02-0.208D-01 0.701D-02 0.133D+00 0.871D+00
 Coeff-En:   0.000D+00 0.000D+00 0.000D+00 0.000D+00 0.100D+01
 Coeff:      0.990D-02-0.208D-01 0.699D-02 0.133D+00 0.871D+00
 Gap=     0.306 Goal=   None    Shift=    0.000
 RMSDP=2.37D-04 MaxDP=1.02D-02 DE=-9.79D-04 OVMax= 3.10D-03

 Cycle   6  Pass 1  IDiag  1:
 RMSU=  1.97D-04    CP:  5.84D-01  1.56D+00  6.66D-01  8.53D-01  9.92D-01
 E= -460.888522647912     Delta-E=       -0.000024997691 Rises=F Damp=F
 DIIS: error= 1.77D-04 at cycle   6 NSaved=   6.
 NSaved= 6 IEnMin= 6 EnMin= -460.888522647912     IErMin= 6 ErrMin= 1.77D-04
 ErrMax= 1.77D-04  0.00D+00 EMaxC= 1.00D-01 BMatC= 4.17D-06 BMatP= 1.71D-05
 IDIUse=3 WtCom= 9.98D-01 WtEn= 1.77D-03
 Coeff-Com:  0.169D-01-0.362D-01-0.258D-01-0.658D-02 0.358D+00 0.694D+00
 Coeff-En:   0.000D+00 0.000D+00 0.000D+00 0.000D+00 0.000D+00 0.100D+01
 Coeff:      0.169D-01-0.361D-01-0.258D-01-0.657D-02 0.358D+00 0.694D+00
 Gap=     0.306 Goal=   None    Shift=    0.000
 RMSDP=1.42D-04 MaxDP=1.19D-02 DE=-2.50D-05 OVMax= 1.05D-03

 Cycle   7  Pass 1  IDiag  1:
 RMSU=  5.54D-05    CP:  5.83D-01  1.56D+00  6.65D-01  8.76D-01  1.11D+00
                    CP:  9.10D-01
 E= -460.888528622484     Delta-E=       -0.000005974572 Rises=F Damp=F
 DIIS: error= 6.30D-05 at cycle   7 NSaved=   7.
 NSaved= 7 IEnMin= 7 EnMin= -460.888528622484     IErMin= 7 ErrMin= 6.30D-05
 ErrMax= 6.30D-05  0.00D+00 EMaxC= 1.00D-01 BMatC= 3.09D-07 BMatP= 4.17D-06
 IDIUse=1 WtCom= 1.00D+00 WtEn= 0.00D+00
 Coeff-Com:  0.128D-02-0.272D-02-0.289D-02-0.148D-01-0.588D-01 0.893D-01
 Coeff-Com:  0.989D+00
 Coeff:      0.128D-02-0.272D-02-0.289D-02-0.148D-01-0.588D-01 0.893D-01
 Coeff:      0.989D+00
 Gap=     0.306 Goal=   None    Shift=    0.000
 RMSDP=3.18D-05 MaxDP=2.13D-03 DE=-5.97D-06 OVMax= 7.52D-04

 Cycle   8  Pass 1  IDiag  1:
 RMSU=  1.87D-05    CP:  5.83D-01  1.57D+00  6.65D-01  8.76D-01  1.11D+00
                    CP:  9.53D-01  1.15D+00
 E= -460.888529606463     Delta-E=       -0.000000983980 Rises=F Damp=F
 DIIS: error= 2.43D-05 at cycle   8 NSaved=   8.
 NSaved= 8 IEnMin= 8 EnMin= -460.888529606463     IErMin= 8 ErrMin= 2.43D-05
 ErrMax= 2.43D-05  0.00D+00 EMaxC= 1.00D-01 BMatC= 9.72D-08 BMatP= 3.09D-07
 IDIUse=1 WtCom= 1.00D+00 WtEn= 0.00D+00
 Coeff-Com: -0.215D-02 0.464D-02 0.338D-02-0.413D-02-0.837D-01-0.826D-01
 Coeff-Com:  0.424D+00 0.741D+00
 Coeff:     -0.215D-02 0.464D-02 0.338D-02-0.413D-02-0.837D-01-0.826D-01
 Coeff:      0.424D+00 0.741D+00
 Gap=     0.306 Goal=   None    Shift=    0.000
 RMSDP=1.31D-05 MaxDP=9.75D-04 DE=-9.84D-07 OVMax= 2.53D-04

 Cycle   9  Pass 1  IDiag  1:
 RMSU=  7.27D-06    CP:  5.83D-01  1.57D+00  6.66D-01  8.74D-01  1.12D+00
                    CP:  9.86D-01  1.23D+00  1.09D+00
 E= -460.888529806317     Delta-E=       -0.000000199853 Rises=F Damp=F
 DIIS: error= 1.01D-05 at cycle   9 NSaved=   9.
 NSaved= 9 IEnMin= 9 EnMin= -460.888529806317     IErMin= 9 ErrMin= 1.01D-05
 ErrMax= 1.01D-05  0.00D+00 EMaxC= 1.00D-01 BMatC= 6.66D-09 BMatP= 9.72D-08
 IDIUse=1 WtCom= 1.00D+00 WtEn= 0.00D+00
 Coeff-Com: -0.691D-03 0.148D-02 0.134D-02 0.151D-02-0.114D-01-0.361D-01
 Coeff-Com: -0.507D-01 0.117D+00 0.977D+00
 Coeff:     -0.691D-03 0.148D-02 0.134D-02 0.151D-02-0.114D-01-0.361D-01
 Coeff:     -0.507D-01 0.117D+00 0.977D+00
 Gap=     0.306 Goal=   None    Shift=    0.000
 RMSDP=5.11D-06 MaxDP=5.71D-04 DE=-2.00D-07 OVMax= 1.40D-04

 Cycle  10  Pass 1  IDiag  1:
 RMSU=  2.88D-06    CP:  5.83D-01  1.57D+00  6.66D-01  8.73D-01  1.12D+00
                    CP:  9.91D-01  1.24D+00  1.24D+00  1.22D+00
 E= -460.888529836253     Delta-E=       -0.000000029936 Rises=F Damp=F
 DIIS: error= 4.18D-06 at cycle  10 NSaved=  10.
 NSaved=10 IEnMin=10 EnMin= -460.888529836253     IErMin=10 ErrMin= 4.18D-06
 ErrMax= 4.18D-06  0.00D+00 EMaxC= 1.00D-01 BMatC= 1.02D-09 BMatP= 6.66D-09
 IDIUse=1 WtCom= 1.00D+00 WtEn= 0.00D+00
 Coeff-Com:  0.872D-04-0.191D-03-0.511D-04 0.938D-03 0.708D-02 0.101D-02
 Coeff-Com: -0.532D-01-0.754D-01 0.222D+00 0.898D+00
 Coeff:      0.872D-04-0.191D-03-0.511D-04 0.938D-03 0.708D-02 0.101D-02
 Coeff:     -0.532D-01-0.754D-01 0.222D+00 0.898D+00
 Gap=     0.306 Goal=   None    Shift=    0.000
 RMSDP=1.89D-06 MaxDP=8.99D-05 DE=-2.99D-08 OVMax= 4.35D-05

 Cycle  11  Pass 1  IDiag  1:
 RMSU=  7.22D-07    CP:  5.83D-01  1.57D+00  6.66D-01  8.73D-01  1.12D+00
                    CP:  9.91D-01  1.23D+00  1.27D+00  1.35D+00  1.17D+00
 E= -460.888529839825     Delta-E=       -0.000000003572 Rises=F Damp=F
 DIIS: error= 1.26D-06 at cycle  11 NSaved=  11.
 NSaved=11 IEnMin=11 EnMin= -460.888529839825     IErMin=11 ErrMin= 1.26D-06
 ErrMax= 1.26D-06  0.00D+00 EMaxC= 1.00D-01 BMatC= 2.31D-10 BMatP= 1.02D-09
 IDIUse=1 WtCom= 1.00D+00 WtEn= 0.00D+00
 Coeff-Com:  0.138D-03-0.296D-03-0.227D-03 0.108D-03 0.415D-02 0.530D-02
 Coeff-Com: -0.931D-02-0.468D-01-0.780D-01 0.325D+00 0.800D+00
 Coeff:      0.138D-03-0.296D-03-0.227D-03 0.108D-03 0.415D-02 0.530D-02
 Coeff:     -0.931D-02-0.468D-01-0.780D-01 0.325D+00 0.800D+00
 Gap=     0.306 Goal=   None    Shift=    0.000
 RMSDP=7.52D-07 MaxDP=5.08D-05 DE=-3.57D-09 OVMax= 1.62D-05

 Cycle  12  Pass 1  IDiag  1:
 RMSU=  3.16D-07    CP:  5.83D-01  1.57D+00  6.66D-01  8.73D-01  1.12D+00
                    CP:  9.89D-01  1.23D+00  1.28D+00  1.39D+00  1.22D+00
                    CP:  1.12D+00
 E= -460.888529840447     Delta-E=       -0.000000000623 Rises=F Damp=F
 DIIS: error= 5.75D-07 at cycle  12 NSaved=  12.
 NSaved=12 IEnMin=12 EnMin= -460.888529840447     IErMin=12 ErrMin= 5.75D-07
 ErrMax= 5.75D-07  0.00D+00 EMaxC= 1.00D-01 BMatC= 1.52D-11 BMatP= 2.31D-10
 IDIUse=1 WtCom= 1.00D+00 WtEn= 0.00D+00
 Coeff-Com: -0.625D-05 0.142D-04-0.496D-05-0.127D-03-0.807D-03-0.186D-03
 Coeff-Com:  0.780D-02 0.103D-01-0.386D-01-0.119D+00-0.304D-01 0.117D+01
 Coeff:     -0.625D-05 0.142D-04-0.496D-05-0.127D-03-0.807D-03-0.186D-03
 Coeff:      0.780D-02 0.103D-01-0.386D-01-0.119D+00-0.304D-01 0.117D+01
 Gap=     0.306 Goal=   None    Shift=    0.000
 RMSDP=2.74D-07 MaxDP=1.09D-05 DE=-6.23D-10 OVMax= 8.60D-06

 Cycle  13  Pass 1  IDiag  1:
 RMSU=  1.27D-07    CP:  5.83D-01  1.57D+00  6.66D-01  8.73D-01  1.12D+00
                    CP:  9.89D-01  1.23D+00  1.28D+00  1.39D+00  1.23D+00
                    CP:  1.30D+00  1.26D+00
 E= -460.888529840556     Delta-E=       -0.000000000109 Rises=F Damp=F
 DIIS: error= 1.31D-07 at cycle  13 NSaved=  13.
 NSaved=13 IEnMin=13 EnMin= -460.888529840556     IErMin=13 ErrMin= 1.31D-07
 ErrMax= 1.31D-07  0.00D+00 EMaxC= 1.00D-01 BMatC= 3.40D-12 BMatP= 1.52D-11
 IDIUse=1 WtCom= 1.00D+00 WtEn= 0.00D+00
 Coeff-Com: -0.123D-04 0.267D-04 0.152D-04-0.532D-04-0.573D-03-0.493D-03
 Coeff-Com:  0.336D-02 0.790D-02-0.474D-02-0.634D-01-0.798D-01 0.391D+00
 Coeff-Com:  0.747D+00
 Coeff:     -0.123D-04 0.267D-04 0.152D-04-0.532D-04-0.573D-03-0.493D-03
 Coeff:      0.336D-02 0.790D-02-0.474D-02-0.634D-01-0.798D-01 0.391D+00
 Coeff:      0.747D+00
 Gap=     0.306 Goal=   None    Shift=    0.000
 RMSDP=9.88D-08 MaxDP=4.50D-06 DE=-1.09D-10 OVMax= 1.76D-06

 Cycle  14  Pass 1  IDiag  1:
 RMSU=  3.64D-08    CP:  5.83D-01  1.57D+00  6.66D-01  8.73D-01  1.12D+00
                    CP:  9.89D-01  1.23D+00  1.28D+00  1.39D+00  1.22D+00
                    CP:  1.31D+00  1.32D+00  1.27D+00
 E= -460.888529840559     Delta-E=       -0.000000000003 Rises=F Damp=F
 DIIS: error= 8.58D-08 at cycle  14 NSaved=  14.
 NSaved=14 IEnMin=14 EnMin= -460.888529840559     IErMin=14 ErrMin= 8.58D-08
 ErrMax= 8.58D-08  0.00D+00 EMaxC= 1.00D-01 BMatC= 5.38D-13 BMatP= 3.40D-12
 IDIUse=1 WtCom= 1.00D+00 WtEn= 0.00D+00
 Coeff-Com: -0.245D-05 0.515D-05 0.489D-05 0.648D-05 0.637D-05-0.112D-03
 Coeff-Com: -0.905D-03 0.210D-03 0.618D-02 0.686D-02-0.160D-01-0.149D+00
 Coeff-Com:  0.182D+00 0.970D+00
 Coeff:     -0.245D-05 0.515D-05 0.489D-05 0.648D-05 0.637D-05-0.112D-03
 Coeff:     -0.905D-03 0.210D-03 0.618D-02 0.686D-02-0.160D-01-0.149D+00
 Coeff:      0.182D+00 0.970D+00
 Gap=     0.306 Goal=   None    Shift=    0.000
 RMSDP=7.12D-08 MaxDP=4.21D-06 DE=-3.18D-12 OVMax= 1.42D-06

 Cycle  15  Pass 1  IDiag  1:
 RMSU=  2.87D-08    CP:  5.83D-01  1.57D+00  6.66D-01  8.73D-01  1.12D+00
                    CP:  9.89D-01  1.23D+00  1.28D+00  1.39D+00  1.22D+00
                    CP:  1.30D+00  1.31D+00  1.52D+00  1.34D+00
 E= -460.888529840560     Delta-E=       -0.000000000000 Rises=F Damp=F
 DIIS: error= 3.11D-08 at cycle  15 NSaved=  15.
 NSaved=15 IEnMin=15 EnMin= -460.888529840560     IErMin=15 ErrMin= 3.11D-08
 ErrMax= 3.11D-08  0.00D+00 EMaxC= 1.00D-01 BMatC= 1.03D-13 BMatP= 5.38D-13
 IDIUse=1 WtCom= 1.00D+00 WtEn= 0.00D+00
 Coeff-Com:  0.251D-06-0.622D-06 0.317D-06 0.761D-05 0.624D-04 0.157D-04
 Coeff-Com: -0.654D-03-0.672D-03 0.216D-02 0.847D-02 0.544D-02-0.873D-01
 Coeff-Com: -0.526D-01 0.304D+00 0.821D+00
 Coeff:      0.251D-06-0.622D-06 0.317D-06 0.761D-05 0.624D-04 0.157D-04
 Coeff:     -0.654D-03-0.672D-03 0.216D-02 0.847D-02 0.544D-02-0.873D-01
 Coeff:     -0.526D-01 0.304D+00 0.821D+00
 Gap=     0.306 Goal=   None    Shift=    0.000
 RMSDP=2.20D-08 MaxDP=1.29D-06 DE=-4.55D-13 OVMax= 4.16D-07

 Cycle  16  Pass 1  IDiag  1:
 RMSU=  6.37D-09    CP:  5.83D-01  1.57D+00  6.66D-01  8.73D-01  1.12D+00
                    CP:  9.89D-01  1.23D+00  1.28D+00  1.39D+00  1.22D+00
                    CP:  1.30D+00  1.31D+00  1.60D+00  1.53D+00  1.28D+00
 E= -460.888529840564     Delta-E=       -0.000000000004 Rises=F Damp=F
 DIIS: error= 1.87D-08 at cycle  16 NSaved=  16.
 NSaved=16 IEnMin=16 EnMin= -460.888529840564     IErMin=16 ErrMin= 1.87D-08
 ErrMax= 1.87D-08  0.00D+00 EMaxC= 1.00D-01 BMatC= 2.41D-14 BMatP= 1.03D-13
 IDIUse=1 WtCom= 1.00D+00 WtEn= 0.00D+00
 Coeff-Com:  0.590D-06-0.128D-05-0.963D-06 0.130D-05 0.239D-04 0.347D-04
 Coeff-Com: -0.715D-04-0.314D-03-0.526D-03 0.193D-02 0.743D-02-0.359D-02
 Coeff-Com: -0.771D-01-0.877D-01 0.341D+00 0.819D+00
 Coeff:      0.590D-06-0.128D-05-0.963D-06 0.130D-05 0.239D-04 0.347D-04
 Coeff:     -0.715D-04-0.314D-03-0.526D-03 0.193D-02 0.743D-02-0.359D-02
 Coeff:     -0.771D-01-0.877D-01 0.341D+00 0.819D+00
 Gap=     0.306 Goal=   None    Shift=    0.000
 RMSDP=8.87D-09 MaxDP=7.13D-07 DE=-4.09D-12 OVMax= 2.20D-07

 SCF Done:  E(RwB97XD) =  -460.888529841     A.U. after   16 cycles
            NFock= 16  Conv=0.89D-08     -V/T= 1.9983
 KE= 4.616737858041D+02 PE=-2.201012022603D+03 EE= 7.151376804797D+02
 Leave Link  502 at Mon Nov 21 14:54:54 2022, MaxMem= 16106127360 cpu:             734.1 elap:              23.1
 (Enter /opt/ap/G16/B01/g16/l601.exe)
 Copying SCF densities to generalized density rwf, IOpCl= 0 IROHF=0.

 **********************************************************************

            Population analysis using the SCF Density.

 **********************************************************************

 Orbital symmetries:
       Occupied  (A) (A) (A) (A) (A) (A) (A) (A) (A) (A) (A) (A)
                 (A) (A) (A) (A) (A) (A) (A) (A) (A) (A) (A) (A)
                 (A) (A) (A) (A) (A) (A) (A) (A) (A) (A) (A) (A)
                 (A) (A)
       Virtual   (A) (A) (A) (A) (A) (A) (A) (A) (A) (A) (A) (A)
                 (A) (A) (A) (A) (A) (A) (A) (A) (A) (A) (A) (A)
                 (A) (A) (A) (A) (A) (A) (A) (A) (A) (A) (A) (A)
                 (A) (A) (A) (A) (A) (A) (A) (A) (A) (A) (A) (A)
                 (A) (A) (A) (A) (A) (A) (A) (A) (A) (A) (A) (A)
                 (A) (A) (A) (A) (A) (A) (A) (A) (A) (A) (A) (A)
                 (A) (A) (A) (A) (A) (A) (A) (A) (A) (A) (A) (A)
                 (A) (A) (A) (A) (A) (A) (A) (A) (A) (A) (A) (A)
                 (A) (A) (A) (A) (A) (A) (A) (A) (A) (A) (A) (A)
                 (A) (A) (A) (A) (A) (A) (A) (A) (A) (A) (A) (A)
                 (A) (A) (A) (A) (A) (A) (A) (A) (A) (A) (A) (A)
                 (A) (A) (A) (A) (A) (A) (A) (A) (A) (A) (A) (A)
                 (A) (A) (A) (A) (A) (A) (A) (A) (A) (A) (A) (A)
                 (A) (A) (A) (A) (A) (A) (A) (A) (A) (A) (A) (A)
                 (A) (A) (A) (A) (A) (A) (A) (A) (A) (A) (A) (A)
                 (A) (A) (A) (A) (A) (A) (A) (A) (A) (A) (A) (A)
                 (A) (A) (A) (A) (A) (A) (A) (A) (A) (A) (A) (A)
                 (A) (A) (A) (A) (A) (A) (A) (A) (A) (A) (A) (A)
                 (A) (A) (A) (A) (A) (A) (A) (A) (A) (A) (A) (A)
                 (A) (A) (A) (A) (A) (A) (A) (A) (A) (A) (A) (A)
                 (A) (A) (A) (A) (A) (A) (A) (A) (A) (A) (A) (A)
                 (A) (A) (A) (A) (A) (A)
 The electronic state is 1-A.
 Alpha  occ. eigenvalues --  -19.26258 -10.35095 -10.29986 -10.29881 -10.28094
 Alpha  occ. eigenvalues --  -10.27517 -10.27385 -10.27187 -10.27106 -10.26711
 Alpha  occ. eigenvalues --  -10.26584  -1.19808  -0.99014  -0.94481  -0.88749
 Alpha  occ. eigenvalues --   -0.86460  -0.84615  -0.75521  -0.73883  -0.72433
 Alpha  occ. eigenvalues --   -0.67627  -0.64707  -0.61611  -0.60433  -0.55906
 Alpha  occ. eigenvalues --   -0.54987  -0.52868  -0.52231  -0.51621  -0.48706
 Alpha  occ. eigenvalues --   -0.47967  -0.45696  -0.43750  -0.42580  -0.41504
 Alpha  occ. eigenvalues --   -0.35865  -0.32903  -0.28991
 Alpha virt. eigenvalues --    0.01631   0.03891   0.04288   0.04667   0.05000
 Alpha virt. eigenvalues --    0.06283   0.06535   0.08414   0.08741   0.09187
 Alpha virt. eigenvalues --    0.10377   0.11465   0.12112   0.12960   0.13889
 Alpha virt. eigenvalues --    0.14959   0.14980   0.15502   0.15887   0.16224
 Alpha virt. eigenvalues --    0.16647   0.17163   0.17564   0.17875   0.18312
 Alpha virt. eigenvalues --    0.18820   0.19044   0.19191   0.19984   0.20614
 Alpha virt. eigenvalues --    0.21774   0.21789   0.22337   0.22545   0.22962
 Alpha virt. eigenvalues --    0.24748   0.25777   0.25956   0.26122   0.27010
 Alpha virt. eigenvalues --    0.27272   0.28806   0.29350   0.29562   0.29995
 Alpha virt. eigenvalues --    0.31009   0.31409   0.31771   0.32440   0.32745
 Alpha virt. eigenvalues --    0.33922   0.34783   0.34890   0.35273   0.35486
 Alpha virt. eigenvalues --    0.36098   0.37109   0.37710   0.38721   0.39492
 Alpha virt. eigenvalues --    0.40184   0.40791   0.41612   0.42594   0.43115
 Alpha virt. eigenvalues --    0.43955   0.44591   0.46804   0.47356   0.47822
 Alpha virt. eigenvalues --    0.50578   0.57023   0.58115   0.59751   0.61074
 Alpha virt. eigenvalues --    0.61731   0.62283   0.65043   0.65636   0.65744
 Alpha virt. eigenvalues --    0.66643   0.67349   0.68028   0.68508   0.70014
 Alpha virt. eigenvalues --    0.70448   0.71013   0.71571   0.71863   0.72337
 Alpha virt. eigenvalues --    0.74109   0.75551   0.76609   0.78260   0.81630
 Alpha virt. eigenvalues --    0.81936   0.83052   0.84624   0.86301   0.87459
 Alpha virt. eigenvalues --    0.89223   0.90131   0.91228   0.92350   0.93151
 Alpha virt. eigenvalues --    0.95574   0.96015   0.97107   0.99467   1.00510
 Alpha virt. eigenvalues --    1.01724   1.02311   1.04067   1.04653   1.05727
 Alpha virt. eigenvalues --    1.06375   1.06751   1.09506   1.11962   1.13026
 Alpha virt. eigenvalues --    1.13845   1.14543   1.18720   1.19477   1.19983
 Alpha virt. eigenvalues --    1.20441   1.22920   1.23518   1.24177   1.24426
 Alpha virt. eigenvalues --    1.27426   1.32989   1.33832   1.43323   1.46020
 Alpha virt. eigenvalues --    1.48304   1.56114   1.57320   1.58711   1.59692
 Alpha virt. eigenvalues --    1.61664   1.61759   1.63020   1.65342   1.68639
 Alpha virt. eigenvalues --    1.69829   1.70705   1.70779   1.73488   1.76059
 Alpha virt. eigenvalues --    1.76768   1.79502   1.80439   1.80942   1.84807
 Alpha virt. eigenvalues --    1.89470   1.90178   1.91863   1.92915   1.93256
 Alpha virt. eigenvalues --    1.95951   1.97329   1.99717   2.00030   2.03224
 Alpha virt. eigenvalues --    2.03967   2.05322   2.07580   2.08607   2.09357
 Alpha virt. eigenvalues --    2.09839   2.11564   2.13018   2.15808   2.18808
 Alpha virt. eigenvalues --    2.24577   2.26204   2.27935   2.31240   2.34492
 Alpha virt. eigenvalues --    2.37399   2.39320   2.40437   2.47101   2.50913
 Alpha virt. eigenvalues --    2.52503   2.53174   2.54087   2.56142   2.60030
 Alpha virt. eigenvalues --    2.66236   2.67212   2.72286   2.74366   2.75892
 Alpha virt. eigenvalues --    2.80230   2.81543   2.84036   2.88116   2.88373
 Alpha virt. eigenvalues --    2.92833   2.93648   2.95312   2.99085   3.01273
 Alpha virt. eigenvalues --    3.02597   3.03348   3.04476   3.06543   3.07323
 Alpha virt. eigenvalues --    3.08389   3.11862   3.17681   3.18474   3.19593
 Alpha virt. eigenvalues --    3.21960   3.23368   3.27357   3.32132   3.35257
 Alpha virt. eigenvalues --    3.37999   3.40006   3.48473   3.49476   3.53302
 Alpha virt. eigenvalues --    3.55484   3.61560   3.73846   3.77379   3.79042
 Alpha virt. eigenvalues --    3.83940   3.88670   3.90369   3.99446   4.17936
 Alpha virt. eigenvalues --    4.28142   4.43333   4.44598   4.45883   4.52223
 Alpha virt. eigenvalues --    4.57431   4.62018   4.94198   4.97303   5.17997
 Alpha virt. eigenvalues --    5.62235   6.18253  23.80253  24.05960  24.15350
 Alpha virt. eigenvalues --   24.17247  24.21938  24.26050  24.41161  24.43982
 Alpha virt. eigenvalues --   24.51697  24.53281  50.18307
          Condensed to atoms (all electrons):
               1          2          3          4          5          6
     1  C   27.470717  -7.724060  -3.508424  -5.746989  -1.420839  -0.035359
     2  C   -7.724060  24.610293  -3.242028   1.811783  -3.978151  -5.997003
     3  C   -3.508424  -3.242028  11.467707   1.824148   0.336445   0.157211
     4  C   -5.746989   1.811783   1.824148  10.143212  -0.613125  -1.134259
     5  C   -1.420839  -3.978151   0.336445  -0.613125   9.600586   2.666766
     6  C   -0.035359  -5.997003   0.157211  -1.134259   2.666766  12.044403
     7  C   -2.876802   0.425625   0.472725  -0.779231   0.283598  -0.241366
     8  O    0.155767  -0.193247   0.147750   0.000963  -0.025329   0.226829
     9  C    1.612912  -1.296416  -0.826395  -0.093529  -0.070409   0.522952
    10  H   -0.182431   0.100963   0.049500   0.519373   0.012460  -0.066932
    11  C   -0.677186   0.494785   0.235983   0.071931  -0.010081  -1.327339
    12  H    0.046863  -0.111656  -0.048343  -0.017058   0.499097   0.089425
    13  C   -1.339707   1.386921  -0.811689   0.456961  -1.032770  -1.115766
    14  H   -0.173832  -0.002947  -0.091666   0.004656   0.036279   0.412770
    15  H   -0.155016   0.046632  -0.083464   0.033099  -0.025222  -0.012612
    16  H   -0.278400   0.013685   0.199494   0.008103  -0.015151  -0.062081
    17  H    0.179149  -0.078317  -0.005900  -0.139597   0.016815   0.017267
    18  H   -0.035746   0.055491  -0.015700   0.025326  -0.062544  -0.044053
    19  H    0.050383  -0.047669   0.026280  -0.019782  -0.020547  -0.027980
               7          8          9         10         11         12
     1  C   -2.876802   0.155767   1.612912  -0.182431  -0.677186   0.046863
     2  C    0.425625  -0.193247  -1.296416   0.100963   0.494785  -0.111656
     3  C    0.472725   0.147750  -0.826395   0.049500   0.235983  -0.048343
     4  C   -0.779231   0.000963  -0.093529   0.519373   0.071931  -0.017058
     5  C    0.283598  -0.025329  -0.070409   0.012460  -0.010081   0.499097
     6  C   -0.241366   0.226829   0.522952  -0.066932  -1.327339   0.089425
     7  C    8.873759  -0.578485   0.032682   0.031272   0.099195  -0.007361
     8  O   -0.578485   8.067346   0.034606  -0.000536   0.005237   0.000218
     9  C    0.032682   0.034606   6.233174  -0.134074  -0.351303   0.057097
    10  H    0.031272  -0.000536  -0.134074   0.502634   0.052186  -0.004110
    11  C    0.099195   0.005237  -0.351303   0.052186   6.571474  -0.133272
    12  H   -0.007361   0.000218   0.057097  -0.004110  -0.133272   0.505894
    13  C   -0.380483   0.189925   0.021242   0.000515   0.715654  -0.005434
    14  H   -0.024830   0.026167  -0.005291   0.000725   0.031996  -0.000327
    15  H    0.618948  -0.041265  -0.081308   0.003491   0.001179  -0.001169
    16  H    0.214507   0.222430  -0.003652   0.000879   0.002596  -0.000079
    17  H   -0.148283   0.003551   0.497014  -0.022484  -0.002383   0.002490
    18  H   -0.002908   0.000075   0.001401   0.001040   0.475272  -0.019941
    19  H    0.009225  -0.000274  -0.001504  -0.000452  -0.062077   0.001162
              13         14         15         16         17         18
     1  C   -1.339707  -0.173832  -0.155016  -0.278400   0.179149  -0.035746
     2  C    1.386921  -0.002947   0.046632   0.013685  -0.078317   0.055491
     3  C   -0.811689  -0.091666  -0.083464   0.199494  -0.005900  -0.015700
     4  C    0.456961   0.004656   0.033099   0.008103  -0.139597   0.025326
     5  C   -1.032770   0.036279  -0.025222  -0.015151   0.016815  -0.062544
     6  C   -1.115766   0.412770  -0.012612  -0.062081   0.017267  -0.044053
     7  C   -0.380483  -0.024830   0.618948   0.214507  -0.148283  -0.002908
     8  O    0.189925   0.026167  -0.041265   0.222430   0.003551   0.000075
     9  C    0.021242  -0.005291  -0.081308  -0.003652   0.497014   0.001401
    10  H    0.000515   0.000725   0.003491   0.000879  -0.022484   0.001040
    11  C    0.715654   0.031996   0.001179   0.002596  -0.002383   0.475272
    12  H   -0.005434  -0.000327  -0.001169  -0.000079   0.002490  -0.019941
    13  C    7.671105   0.136555   0.012534  -0.033403  -0.003528  -0.050683
    14  H    0.136555   0.621727   0.002177  -0.016952  -0.000510   0.000563
    15  H    0.012534   0.002177   0.498528   0.004091  -0.024159   0.000005
    16  H   -0.033403  -0.016952   0.004091   0.475439  -0.001171  -0.000079
    17  H   -0.003528  -0.000510  -0.024159  -0.001171   0.517316  -0.000056
    18  H   -0.050683   0.000563   0.000005  -0.000079  -0.000056   0.506092
    19  H    0.435572  -0.023876   0.000041   0.000935  -0.000035  -0.014075
              19
     1  C    0.050383
     2  C   -0.047669
     3  C    0.026280
     4  C   -0.019782
     5  C   -0.020547
     6  C   -0.027980
     7  C    0.009225
     8  O   -0.000274
     9  C   -0.001504
    10  H   -0.000452
    11  C   -0.062077
    12  H    0.001162
    13  C    0.435572
    14  H   -0.023876
    15  H    0.000041
    16  H    0.000935
    17  H   -0.000035
    18  H   -0.014075
    19  H    0.503284
 Mulliken charges:
               1
     1  C    0.638998
     2  C   -0.274683
     3  C   -0.283634
     4  C   -0.355986
     5  C   -0.177877
     6  C   -0.072874
     7  C   -0.021786
     8  O   -0.241728
     9  C   -0.149198
    10  H    0.135982
    11  C   -0.193847
    12  H    0.146504
    13  C   -0.253519
    14  H    0.066615
    15  H    0.203490
    16  H    0.268811
    17  H    0.192823
    18  H    0.180520
    19  H    0.191389
 Sum of Mulliken charges =  -0.00000
 Mulliken charges with hydrogens summed into heavy atoms:
               1
     1  C    0.638998
     2  C   -0.274683
     3  C   -0.283634
     4  C   -0.220003
     5  C   -0.031373
     6  C   -0.006259
     7  C    0.181704
     8  O    0.027083
     9  C    0.043625
    11  C   -0.013327
    13  C   -0.062130
 Electronic spatial extent (au):  <R**2>=           1501.9024
 Charge=             -0.0000 electrons
 Dipole moment (field-independent basis, Debye):
    X=              1.3510    Y=             -0.5155    Z=              0.6962  Tot=              1.6049
 Quadrupole moment (field-independent basis, Debye-Ang):
   XX=            -57.5189   YY=            -56.5723   ZZ=            -67.4172
   XY=              4.2444   XZ=             -0.6943   YZ=              2.1278
 Traceless Quadrupole moment (field-independent basis, Debye-Ang):
   XX=              2.9839   YY=              3.9306   ZZ=             -6.9144
   XY=              4.2444   XZ=             -0.6943   YZ=              2.1278
 Octapole moment (field-independent basis, Debye-Ang**2):
  XXX=              5.1536  YYY=              5.7993  ZZZ=              0.3975  XYY=              8.7837
  XXY=             -9.7854  XXZ=              0.2055  XZZ=             -3.5314  YZZ=              5.5878
  YYZ=              6.2969  XYZ=             -2.3202
 Hexadecapole moment (field-independent basis, Debye-Ang**3):
 XXXX=          -1099.3813 YYYY=           -644.3589 ZZZZ=            -77.1601 XXXY=             22.1783
 XXXZ=              0.2605 YYYX=             13.8465 YYYZ=             16.9945 ZZZX=             -0.4373
 ZZZY=              1.6818 XXYY=           -319.1892 XXZZ=           -236.1955 YYZZ=           -139.6858
 XXYZ=              1.5765 YYXZ=             -6.3412 ZZXY=             -7.6781
 N-N= 5.633120264785D+02 E-N=-2.201012023132D+03  KE= 4.616737858041D+02
 No NMR shielding tensors so no spin-rotation constants.
 Leave Link  601 at Mon Nov 21 14:54:54 2022, MaxMem= 16106127360 cpu:               4.0 elap:               0.2
 (Enter /opt/ap/G16/B01/g16/l9999.exe)
 1\1\GINC-N10\SP\RwB97XD\6-311++G(d,p)\C10H8O1\ROOT\21-Nov-2022\0\\#P w
 B97XD/6-311++G(d,p) scf=maxcycle=512\\_conf029.gjf nmol_natom 1_19\\0,
 1\C\C,1,1.40879539\C,1,1.42289824,2,117.24956717\C,2,1.41887971,1,119.
 07594714,3,0.16510261,0\C,2,1.42227783,1,117.46262303,3,-179.44443577,
 0\C,1,1.42440336,2,119.00293897,4,179.73740031,0\C,3,1.35510367,1,122.
 33979448,2,-0.36120568,0\O,3,1.37615658,1,115.04370777,2,-179.5931286,
 0\C,4,1.34577659,2,121.30210156,1,0.17277764,0\H,4,0.93023405,2,119.33
 469462,1,-179.75965297,0\C,5,1.34486794,2,122.06073707,1,-0.32265162,0
 \H,5,0.92957893,2,118.96449269,1,179.64671542,0\C,6,1.35980576,1,121.1
 112438,2,0.11625163,0\H,6,0.92999796,1,119.43671105,2,-179.87270235,0\
 H,7,0.93052813,3,120.28038366,1,-179.76477098,0\H,8,0.81991994,3,109.4
 8785721,1,-35.,0\H,9,0.93027331,4,119.71917791,2,179.60144151,0\H,11,0
 .92987565,5,119.70372857,2,-179.69197286,0\H,13,0.93032717,6,120.14524
 692,1,179.85241379,0\\Version=ES64L-G16RevB.01\State=1-A\HF=-460.88852
 98\RMSD=8.869e-09\Dipole=-0.4737676,-0.2741786,0.3147106\Quadrupole=3.
 5827612,-5.1180022,1.535241,-0.0952719,3.0019662,1.7194606\PG=C01 [X(C
 10H8O1)]\\@


 ... A MOLECULAR SYSTEM ... (PASSES) ... FROM ONE STATE OF EQUILIBRIUM 
 TO ANOTHER ... BY MEANS OF ALL POSSIBLE INTERMEDIATE PATHS, 
 BUT THE PATH MOST ECONOMICAL OF ENERGY WILL BE THE MORE OFTEN TRAVELED.

                      -- HENRY EYRING, 1945
 Job cpu time:       0 days  0 hours 12 minutes 52.4 seconds.
 Elapsed time:       0 days  0 hours  0 minutes 24.3 seconds.
 File lengths (MBytes):  RWF=     51 Int=      0 D2E=      0 Chk=      6 Scr=      1
 Normal termination of Gaussian 16 at Mon Nov 21 14:54:54 2022.
