 Entering Gaussian System, Link 0=g16
 Input=_conf013.gjf
 Output=_conf013.log
 Initial command:
 /opt/ap/G16/B01/g16/l1.exe "/tmp2/scr/Gau-7956.inp" -scrdir="/tmp2/scr/"
 Entering Link 1 = /opt/ap/G16/B01/g16/l1.exe PID=      7957.
  
 Copyright (c) 1988-2017, Gaussian, Inc.  All Rights Reserved.
  
 This is part of the Gaussian(R) 16 program.  It is based on
 the Gaussian(R) 09 system (copyright 2009, Gaussian, Inc.),
 the Gaussian(R) 03 system (copyright 2003, Gaussian, Inc.),
 the Gaussian(R) 98 system (copyright 1998, Gaussian, Inc.),
 the Gaussian(R) 94 system (copyright 1995, Gaussian, Inc.),
 the Gaussian 92(TM) system (copyright 1992, Gaussian, Inc.),
 the Gaussian 90(TM) system (copyright 1990, Gaussian, Inc.),
 the Gaussian 88(TM) system (copyright 1988, Gaussian, Inc.),
 the Gaussian 86(TM) system (copyright 1986, Carnegie Mellon
 University), and the Gaussian 82(TM) system (copyright 1983,
 Carnegie Mellon University). Gaussian is a federally registered
 trademark of Gaussian, Inc.
  
 This software contains proprietary and confidential information,
 including trade secrets, belonging to Gaussian, Inc.
  
 This software is provided under written license and may be
 used, copied, transmitted, or stored only in accord with that
 written license.
  
 The following legend is applicable only to US Government
 contracts under FAR:
  
                    RESTRICTED RIGHTS LEGEND
  
 Use, reproduction and disclosure by the US Government is
 subject to restrictions as set forth in subparagraphs (a)
 and (c) of the Commercial Computer Software - Restricted
 Rights clause in FAR 52.227-19.
  
 Gaussian, Inc.
 340 Quinnipiac St., Bldg. 40, Wallingford CT 06492
  
  
 ---------------------------------------------------------------
 Warning -- This program may not be used in any manner that
 competes with the business of Gaussian, Inc. or will provide
 assistance to any competitor of Gaussian, Inc.  The licensee
 of this program is prohibited from giving any competitor of
 Gaussian, Inc. access to this program.  By using this program,
 the user acknowledges that Gaussian, Inc. is engaged in the
 business of creating and licensing software in the field of
 computational chemistry and represents and warrants to the
 licensee that it is not a competitor of Gaussian, Inc. and that
 it will not use this program in any manner prohibited above.
 ---------------------------------------------------------------
  

 Cite this work as:
 Gaussian 16, Revision B.01,
 M. J. Frisch, G. W. Trucks, H. B. Schlegel, G. E. Scuseria, 
 M. A. Robb, J. R. Cheeseman, G. Scalmani, V. Barone, 
 G. A. Petersson, H. Nakatsuji, X. Li, M. Caricato, A. V. Marenich, 
 J. Bloino, B. G. Janesko, R. Gomperts, B. Mennucci, H. P. Hratchian, 
 J. V. Ortiz, A. F. Izmaylov, J. L. Sonnenberg, D. Williams-Young, 
 F. Ding, F. Lipparini, F. Egidi, J. Goings, B. Peng, A. Petrone, 
 T. Henderson, D. Ranasinghe, V. G. Zakrzewski, J. Gao, N. Rega, 
 G. Zheng, W. Liang, M. Hada, M. Ehara, K. Toyota, R. Fukuda, 
 J. Hasegawa, M. Ishida, T. Nakajima, Y. Honda, O. Kitao, H. Nakai, 
 T. Vreven, K. Throssell, J. A. Montgomery, Jr., J. E. Peralta, 
 F. Ogliaro, M. J. Bearpark, J. J. Heyd, E. N. Brothers, K. N. Kudin, 
 V. N. Staroverov, T. A. Keith, R. Kobayashi, J. Normand, 
 K. Raghavachari, A. P. Rendell, J. C. Burant, S. S. Iyengar, 
 J. Tomasi, M. Cossi, J. M. Millam, M. Klene, C. Adamo, R. Cammi, 
 J. W. Ochterski, R. L. Martin, K. Morokuma, O. Farkas, 
 J. B. Foresman, and D. J. Fox, Gaussian, Inc., Wallingford CT, 2016.
 
 ******************************************
 Gaussian 16:  ES64L-G16RevB.01 20-Dec-2017
                21-Nov-2022 
 ******************************************
 %nprocshared=32
 Will use up to   32 processors via shared memory.
 %mem=120GB
 %chk=_conf013.chk
 ----------------------------------------
 #P wB97XD/6-311++G(d,p) scf=maxcycle=512
 ----------------------------------------
 1/38=1,172=1/1;
 2/12=2,17=6,18=5,40=1/2;
 3/5=4,6=6,7=1111,11=2,25=1,30=1,74=-58/1,2,3;
 4//1;
 5/5=2,7=512,38=5/2;
 6/7=2,8=2,9=2,10=2,28=1/1;
 99/5=1,9=1/99;
 Leave Link    1 at Mon Nov 21 14:52:47 2022, MaxMem= 16106127360 cpu:               1.8 elap:               0.1
 (Enter /opt/ap/G16/B01/g16/l101.exe)
 ----------------------------
 _conf013.gjf nmol_natom 1_19
 ----------------------------
 Symbolic Z-matrix:
 Charge =  0 Multiplicity = 1
 C
 C                    1     1.4088 
 C                    1     1.4229   2     117.24957 
 C                    2     1.41888  1     119.07595  3     0.1651   0
 C                    2     1.42228  1     117.46262  3    -179.44444  0
 C                    1     1.4244   2     119.00294  4     179.7374  0
 C                    3     1.3551   1     122.33979  2    -0.36121  0
 O                    3     1.37616  1     115.04371  2    -179.59313  0
 C                    4     1.34578  2     121.3021  1     0.17278  0
 H                    4     0.93023  2     119.33469  1    -179.75965  0
 C                    5     1.34487  2     122.06074  1    -0.32265  0
 H                    5     0.92958  2     118.96449  1     179.64672  0
 C                    6     1.35981  1     121.11124  2     0.11625  0
 H                    6     0.93     1     119.43671  2    -179.8727  0
 H                    7     0.93053  3     120.28038  1    -179.76477  0
 H                    8     0.81992  3     109.48786  1    -115.     0
 H                    9     0.93027  4     119.71918  2     179.60144  0
 H                    11    0.92988  5     119.70373  2    -179.69197  0
 H                    13    0.93033  6     120.14525  1     179.85241  0
 
 ITRead=  0  0  0  0  0  0  0  0  0  0  0  0  0  0  0  0  0  0  0
 MicOpt= -1 -1 -1 -1 -1 -1 -1 -1 -1 -1 -1 -1 -1 -1 -1 -1 -1 -1 -1
 NAtoms=     19 NQM=       19 NQMF=       0 NMMI=      0 NMMIF=      0
                NMic=       0 NMicF=      0.
                    Isotopes and Nuclear Properties:
 (Nuclear quadrupole moments (NQMom) in fm**2, nuclear magnetic moments (NMagM)
  in nuclear magnetons)

  Atom         1           2           3           4           5           6           7           8           9          10
 IAtWgt=          12          12          12          12          12          12          12          16          12           1
 AtmWgt=  12.0000000  12.0000000  12.0000000  12.0000000  12.0000000  12.0000000  12.0000000  15.9949146  12.0000000   1.0078250
 NucSpn=           0           0           0           0           0           0           0           0           0           1
 AtZEff=  -0.0000000  -0.0000000  -0.0000000  -0.0000000  -0.0000000  -0.0000000  -0.0000000  -0.0000000  -0.0000000  -0.0000000
 NQMom=    0.0000000   0.0000000   0.0000000   0.0000000   0.0000000   0.0000000   0.0000000   0.0000000   0.0000000   0.0000000
 NMagM=    0.0000000   0.0000000   0.0000000   0.0000000   0.0000000   0.0000000   0.0000000   0.0000000   0.0000000   2.7928460
 AtZNuc=   6.0000000   6.0000000   6.0000000   6.0000000   6.0000000   6.0000000   6.0000000   8.0000000   6.0000000   1.0000000

  Atom        11          12          13          14          15          16          17          18          19
 IAtWgt=          12           1          12           1           1           1           1           1           1
 AtmWgt=  12.0000000   1.0078250  12.0000000   1.0078250   1.0078250   1.0078250   1.0078250   1.0078250   1.0078250
 NucSpn=           0           1           0           1           1           1           1           1           1
 AtZEff=  -0.0000000  -0.0000000  -0.0000000  -0.0000000  -0.0000000  -0.0000000  -0.0000000  -0.0000000  -0.0000000
 NQMom=    0.0000000   0.0000000   0.0000000   0.0000000   0.0000000   0.0000000   0.0000000   0.0000000   0.0000000
 NMagM=    0.0000000   2.7928460   0.0000000   2.7928460   2.7928460   2.7928460   2.7928460   2.7928460   2.7928460
 AtZNuc=   6.0000000   1.0000000   6.0000000   1.0000000   1.0000000   1.0000000   1.0000000   1.0000000   1.0000000
 Leave Link  101 at Mon Nov 21 14:52:47 2022, MaxMem= 16106127360 cpu:               5.2 elap:               0.2
 (Enter /opt/ap/G16/B01/g16/l202.exe)
                          Input orientation:                          
 ---------------------------------------------------------------------
 Center     Atomic      Atomic             Coordinates (Angstroms)
 Number     Number       Type             X           Y           Z
 ---------------------------------------------------------------------
      1          6           0        0.000000    0.000000    0.000000
      2          6           0        0.000000    0.000000    1.408795
      3          6           0        1.264986    0.000000   -0.651498
      4          6           0        1.240062    0.003573    2.098326
      5          6           0       -1.261945   -0.012237    2.064707
      6          6           0       -1.245741   -0.009299   -0.690628
      7          6           0        2.433644    0.007218    0.034427
      8          8           0        1.212032    0.008854   -2.026607
      9          6           0        2.409936    0.010412    1.433147
     10          1           0        1.244276    0.000184    3.028545
     11          6           0       -2.421000   -0.017057    1.382624
     12          1           0       -1.286266   -0.017488    2.993953
     13          6           0       -2.424704   -0.015738   -0.013076
     14          1           0       -1.252769   -0.011151   -1.620598
     15          1           0        3.245045    0.010306   -0.421097
     16          1           0        1.525647   -0.690880   -2.316929
     17          1           0        3.210137    0.018260    1.907515
     18          1           0       -3.227740   -0.020753    1.845035
     19          1           0       -3.230632   -0.019714   -0.477804
 ---------------------------------------------------------------------
                    Distance matrix (angstroms):
                    1          2          3          4          5
     1  C    0.000000
     2  C    1.408795   0.000000
     3  C    1.422898   2.417643   0.000000
     4  C    2.437363   1.418880   2.749940   0.000000
     5  C    2.419849   1.422278   3.709892   2.502283   0.000000
     6  C    1.424403   2.441216   2.511049   3.735994   2.755385
     7  C    2.433898   2.794917   1.355104   2.384184   4.216609
     8  O    2.361406   3.642951   1.376157   4.125032   4.781198
     9  C    2.803892   2.410081   2.378396   1.345777   3.725867
    10  H    3.274188   2.042501   3.680101   0.930234   2.685197
    11  C    2.788042   2.421201   4.210040   3.730420   1.344868
    12  H    3.258610   2.041448   4.449551   2.680471   0.929579
    13  C    2.424790   2.810899   3.744548   4.229527   2.381009
    14  H    2.048388   3.278228   2.697845   4.477144   3.685317
    15  H    3.272269   3.725443   1.993445   3.219859   5.147104
    16  H    2.858859   4.084842   1.821790   4.478650   5.237362
    17  H    3.734157   3.248697   3.214420   1.979348   4.474947
    18  H    3.717915   3.257153   5.139815   4.475043   1.978050
    19  H    3.265834   3.741207   4.499015   5.159854   3.215610
                    6          7          8          9         10
     6  C    0.000000
     7  C    3.750180   0.000000
     8  O    2.797466   2.395871   0.000000
     9  C    4.227858   1.398925   3.661267   0.000000
    10  H    4.475771   3.221706   5.055262   1.975895   0.000000
    11  C    2.383205   5.038431   4.982213   4.831278   4.017910
    12  H    3.684813   4.753644   5.607870   4.012331   2.530840
    13  C    1.359806   4.858634   4.157013   5.046383   4.765829
    14  H    0.929998   4.040926   2.498097   4.768777   5.277300
    15  H    4.498910   0.930528   2.590522   2.033624   3.987882
    16  H    3.284814   2.615468   0.819920   3.916229   5.397298
    17  H    5.158096   2.027689   4.412463   0.930273   2.263105
    18  H    3.218391   5.943934   5.890846   5.652788   4.626021
    19  H    1.996295   5.687453   4.704984   5.955556   5.685040
                   11         12         13         14         15
    11  C    0.000000
    12  H    1.970788   0.000000
    13  C    1.395705   3.215317   0.000000
    14  H    3.222443   4.614677   1.989366   0.000000
    15  H    5.946277   5.674162   5.684470   4.655061   0.000000
    16  H    5.451307   6.046965   4.622643   2.943893   2.653708
    17  H    5.655657   4.625934   5.953256   5.689110   2.328887
    18  H    0.929876   2.255958   2.024221   3.988887   6.858080
    19  H    2.028966   3.979153   0.930327   2.284293   6.475995
                   16         17         18         19
    16  H    0.000000
    17  H    4.602859   0.000000
    18  H    6.353402   6.438299   0.000000
    19  H    5.143446   6.868384   2.322841   0.000000
 Stoichiometry    C10H8O
 Framework group  C1[X(C10H8O)]
 Deg. of freedom    51
 Full point group                 C1      NOp   1
 Largest Abelian subgroup         C1      NOp   1
 Largest concise Abelian subgroup C1      NOp   1
                         Standard orientation:                         
 ---------------------------------------------------------------------
 Center     Atomic      Atomic             Coordinates (Angstroms)
 Number     Number       Type             X           Y           Z
 ---------------------------------------------------------------------
      1          6           0        0.030095    0.428539   -0.016443
      2          6           0        0.361856   -0.940536    0.000102
      3          6           0       -1.352737    0.763791   -0.020898
      4          6           0       -0.680951   -1.902677    0.007759
      5          6           0        1.742768   -1.280646    0.016853
      6          6           0        1.078161    1.393152   -0.018402
      7          6           0       -2.326995   -0.178076   -0.017108
      8          8           0       -1.625097    2.112492   -0.046034
      9          6           0       -1.974566   -1.531815   -0.003935
     10          1           0       -0.465988   -2.807620    0.022084
     11          6           0        2.708599   -0.344803    0.010734
     12          1           0        1.985234   -2.177902    0.032955
     13          6           0        2.383523    1.012401   -0.006985
     14          1           0        0.865990    2.298579   -0.027489
     15          1           0       -3.222848    0.073500   -0.023496
     16          1           0       -1.998478    2.329181    0.651032
     17          1           0       -2.640550   -2.181333   -0.004191
     18          1           0        3.601545   -0.604162    0.017822
     19          1           0        3.057345    1.653853   -0.010503
 ---------------------------------------------------------------------
 Rotational constants (GHZ):           2.0074801           1.1507144           0.7324478
 Leave Link  202 at Mon Nov 21 14:52:47 2022, MaxMem= 16106127360 cpu:               0.2 elap:               0.0
 (Enter /opt/ap/G16/B01/g16/l301.exe)
 Standard basis: 6-311++G(d,p) (5D, 7F)
 Ernie: Thresh=  0.10000D-02 Tol=  0.10000D-05 Strict=F.
 There are   309 symmetry adapted cartesian basis functions of A   symmetry.
 There are   298 symmetry adapted basis functions of A   symmetry.
   298 basis functions,   468 primitive gaussians,   309 cartesian basis functions
    38 alpha electrons       38 beta electrons
       nuclear repulsion energy       562.5175989336 Hartrees.
 IExCor= 4639 DFT=T Ex+Corr=wB97XD ExCW=0 ScaHFX=  1.000000
 ScaDFX=  1.000000  1.000000  1.000000  1.000000 ScalE2=  1.000000  1.000000
 IRadAn=      5 IRanWt=     -1 IRanGd=            0 ICorTp=0 IEmpDi=121
 HFx  wShort=  0.000000 wLong=  0.200000 cFull=  0.222036 cShort=  0.000000 cLong=  0.777964
 DFx  wShort=  0.000000 wLong=  0.200000 cFull=  0.000000 cShort=  0.000000 cLong=  1.000000
 NAtoms=   19 NActive=   19 NUniq=   19 SFac= 1.00D+00 NAtFMM=   60 NAOKFM=F Big=F
 Integral buffers will be    131072 words long.
 Raffenetti 2 integral format.
 Two-electron integral symmetry is turned on.
 R6Disp:  Grimme-D2 Dispersion energy=       -0.0102986826 Hartrees.
 Nuclear repulsion after empirical dispersion term =      562.5073002510 Hartrees.
 Leave Link  301 at Mon Nov 21 14:52:48 2022, MaxMem= 16106127360 cpu:               1.4 elap:               0.0
 (Enter /opt/ap/G16/B01/g16/l302.exe)
 NPDir=0 NMtPBC=     1 NCelOv=     1 NCel=       1 NClECP=     1 NCelD=      1
         NCelK=      1 NCelE2=     1 NClLst=     1 CellRange=     0.0.
 One-electron integrals computed using PRISM.
 One-electron integral symmetry used in STVInt
 NBasis=   298 RedAO= T EigKep=  1.32D-06  NBF=   298
 NBsUse=   296 1.00D-06 EigRej=  6.31D-07 NBFU=   296
 Precomputing XC quadrature grid using
 IXCGrd= 4 IRadAn=           5 IRanWt=          -1 IRanGd=           0 AccXCQ= 0.00D+00.
 Generated NRdTot=       0 NPtTot=           0 NUsed=           0 NTot=          32
 NSgBfM=   309   309   309   309   309 MxSgAt=    19 MxSgA2=    19.
 Leave Link  302 at Mon Nov 21 14:52:48 2022, MaxMem= 16106127360 cpu:               7.8 elap:               0.3
 (Enter /opt/ap/G16/B01/g16/l303.exe)
 DipDrv:  MaxL=1.
 Leave Link  303 at Mon Nov 21 14:52:48 2022, MaxMem= 16106127360 cpu:               1.4 elap:               0.1
 (Enter /opt/ap/G16/B01/g16/l401.exe)
 ExpMin= 3.60D-02 ExpMax= 8.59D+03 ExpMxC= 1.30D+03 IAcc=3 IRadAn=         5 AccDes= 0.00D+00
 Harris functional with IExCor= 4639 and IRadAn=       5 diagonalized for initial guess.
 HarFok:  IExCor= 4639 AccDes= 0.00D+00 IRadAn=         5 IDoV= 1 UseB2=F ITyADJ=14
 ICtDFT=  3500011 ScaDFX=  1.000000  1.000000  1.000000  1.000000
 FoFCou: FMM=F IPFlag=           0 FMFlag=      100000 FMFlg1=           0
         NFxFlg=           0 DoJE=T BraDBF=F KetDBF=T FulRan=T
         wScrn=  0.000000 ICntrl=       500 IOpCl=  0 I1Cent=   200000004 NGrid=           0
         NMat0=    1 NMatS0=      1 NMatT0=    0 NMatD0=    1 NMtDS0=    0 NMtDT0=    0
 Petite list used in FoFCou.
 Harris En= -440.612750906018    
 JPrj=0 DoOrth=F DoCkMO=F.
 Leave Link  401 at Mon Nov 21 14:52:48 2022, MaxMem= 16106127360 cpu:              16.2 elap:               0.5
 (Enter /opt/ap/G16/B01/g16/l502.exe)
 Integral symmetry usage will be decided dynamically.
 Closed shell SCF:
 Using DIIS extrapolation, IDIIS=  1040.
 NGot= 16106127360 LenX= 16105923535 LenY= 16105827613
 Requested convergence on RMS density matrix=1.00D-08 within 512 cycles.
 Requested convergence on MAX density matrix=1.00D-06.
 Requested convergence on             energy=1.00D-06.
 No special actions if energy rises.
 Fock matrices will be formed incrementally for  20 cycles.

 Cycle   1  Pass 1  IDiag  1:
 FoFJK:  IHMeth= 1 ICntrl=       0 DoSepK=T KAlg= 0 I1Cent=           0 FoldK=F
 IRaf=         1 NMat=       1 IRICut=       1 DoRegI=T DoRafI=F ISym2E= 0 IDoP0=0 IntGTp=1.
 FoFCou: FMM=F IPFlag=           0 FMFlag=      100000 FMFlg1=           0
         NFxFlg=           0 DoJE=T BraDBF=F KetDBF=F FulRan=T
         wScrn=  0.000000 ICntrl=       500 IOpCl=  0 I1Cent=           0 NGrid=           0
         NMat0=    1 NMatS0=      1 NMatT0=    0 NMatD0=    1 NMtDS0=    0 NMtDT0=    0
 Symmetry not used in FoFCou.
 E= -460.754452411090    
 DIIS: error= 5.39D-02 at cycle   1 NSaved=   1.
 NSaved= 1 IEnMin= 1 EnMin= -460.754452411090     IErMin= 1 ErrMin= 5.39D-02
 ErrMax= 5.39D-02  0.00D+00 EMaxC= 1.00D-01 BMatC= 9.52D-01 BMatP= 9.52D-01
 IDIUse=3 WtCom= 4.61D-01 WtEn= 5.39D-01
 Coeff-Com:  0.100D+01
 Coeff-En:   0.100D+01
 Coeff:      0.100D+01
 Gap=     0.336 Goal=   None    Shift=    0.000
 GapD=    0.336 DampG=1.000 DampE=0.500 DampFc=0.5000 IDamp=-1.
 Damping current iteration by 5.00D-01
 RMSDP=4.67D-02 MaxDP=4.94D+00              OVMax= 1.25D-01

 Cycle   2  Pass 1  IDiag  1:
 RMSU=  9.40D-03    CP:  8.22D-01
 E= -460.820254509059     Delta-E=       -0.065802097970 Rises=F Damp=T
 DIIS: error= 2.68D-02 at cycle   2 NSaved=   2.
 NSaved= 2 IEnMin= 2 EnMin= -460.820254509059     IErMin= 2 ErrMin= 2.68D-02
 ErrMax= 2.68D-02  0.00D+00 EMaxC= 1.00D-01 BMatC= 2.08D-01 BMatP= 9.52D-01
 IDIUse=3 WtCom= 7.32D-01 WtEn= 2.68D-01
 Coeff-Com: -0.731D+00 0.173D+01
 Coeff-En:   0.000D+00 0.100D+01
 Coeff:     -0.535D+00 0.154D+01
 Gap=     0.339 Goal=   None    Shift=    0.000
 RMSDP=2.43D-02 MaxDP=3.07D+00 DE=-6.58D-02 OVMax= 1.27D-01

 Cycle   3  Pass 1  IDiag  1:
 RMSU=  9.46D-03    CP:  6.45D-01  1.75D+00
 E= -460.863226879126     Delta-E=       -0.042972370067 Rises=F Damp=F
 DIIS: error= 8.64D-03 at cycle   3 NSaved=   3.
 NSaved= 3 IEnMin= 3 EnMin= -460.863226879126     IErMin= 3 ErrMin= 8.64D-03
 ErrMax= 8.64D-03  0.00D+00 EMaxC= 1.00D-01 BMatC= 2.72D-02 BMatP= 2.08D-01
 IDIUse=3 WtCom= 9.14D-01 WtEn= 8.64D-02
 Coeff-Com: -0.370D+00 0.785D+00 0.585D+00
 Coeff-En:   0.000D+00 0.000D+00 0.100D+01
 Coeff:     -0.338D+00 0.717D+00 0.621D+00
 Gap=     0.316 Goal=   None    Shift=    0.000
 RMSDP=7.05D-03 MaxDP=4.25D-01 DE=-4.30D-02 OVMax= 5.68D-02

 Cycle   4  Pass 1  IDiag  1:
 RMSU=  1.73D-03    CP:  6.05D-01  1.69D+00  4.91D-01
 E= -460.887577176789     Delta-E=       -0.024350297663 Rises=F Damp=F
 DIIS: error= 1.46D-03 at cycle   4 NSaved=   4.
 NSaved= 4 IEnMin= 4 EnMin= -460.887577176789     IErMin= 4 ErrMin= 1.46D-03
 ErrMax= 1.46D-03  0.00D+00 EMaxC= 1.00D-01 BMatC= 8.09D-04 BMatP= 2.72D-02
 IDIUse=3 WtCom= 9.85D-01 WtEn= 1.46D-02
 Coeff-Com: -0.133D+00 0.282D+00 0.284D+00 0.567D+00
 Coeff-En:   0.000D+00 0.000D+00 0.000D+00 0.100D+01
 Coeff:     -0.131D+00 0.278D+00 0.279D+00 0.573D+00
 Gap=     0.310 Goal=   None    Shift=    0.000
 RMSDP=7.80D-04 MaxDP=4.45D-02 DE=-2.44D-02 OVMax= 7.75D-03

 Cycle   5  Pass 1  IDiag  1:
 RMSU=  5.34D-04    CP:  6.08D-01  1.70D+00  5.35D-01  8.74D-01
 E= -460.888339585101     Delta-E=       -0.000762408312 Rises=F Damp=F
 DIIS: error= 2.13D-04 at cycle   5 NSaved=   5.
 NSaved= 5 IEnMin= 5 EnMin= -460.888339585101     IErMin= 5 ErrMin= 2.13D-04
 ErrMax= 2.13D-04  0.00D+00 EMaxC= 1.00D-01 BMatC= 1.61D-05 BMatP= 8.09D-04
 IDIUse=3 WtCom= 9.98D-01 WtEn= 2.13D-03
 Coeff-Com:  0.512D-02-0.107D-01 0.125D-01 0.138D+00 0.855D+00
 Coeff-En:   0.000D+00 0.000D+00 0.000D+00 0.000D+00 0.100D+01
 Coeff:      0.511D-02-0.107D-01 0.125D-01 0.137D+00 0.856D+00
 Gap=     0.311 Goal=   None    Shift=    0.000
 RMSDP=2.04D-04 MaxDP=1.36D-02 DE=-7.62D-04 OVMax= 2.45D-03

 Cycle   6  Pass 1  IDiag  1:
 RMSU=  1.56D-04    CP:  6.07D-01  1.70D+00  5.33D-01  9.16D-01  1.11D+00
 E= -460.888361540538     Delta-E=       -0.000021955437 Rises=F Damp=F
 DIIS: error= 1.25D-04 at cycle   6 NSaved=   6.
 NSaved= 6 IEnMin= 6 EnMin= -460.888361540538     IErMin= 6 ErrMin= 1.25D-04
 ErrMax= 1.25D-04  0.00D+00 EMaxC= 1.00D-01 BMatC= 3.18D-06 BMatP= 1.61D-05
 IDIUse=3 WtCom= 9.99D-01 WtEn= 1.25D-03
 Coeff-Com:  0.158D-01-0.338D-01-0.231D-01-0.775D-02 0.324D+00 0.725D+00
 Coeff-En:   0.000D+00 0.000D+00 0.000D+00 0.000D+00 0.000D+00 0.100D+01
 Coeff:      0.158D-01-0.337D-01-0.230D-01-0.774D-02 0.323D+00 0.725D+00
 Gap=     0.311 Goal=   None    Shift=    0.000
 RMSDP=1.57D-04 MaxDP=1.15D-02 DE=-2.20D-05 OVMax= 9.86D-04

 Cycle   7  Pass 1  IDiag  1:
 RMSU=  4.43D-05    CP:  6.06D-01  1.70D+00  5.27D-01  9.40D-01  1.20D+00
                    CP:  1.06D+00
 E= -460.888366290414     Delta-E=       -0.000004749876 Rises=F Damp=F
 DIIS: error= 4.17D-05 at cycle   7 NSaved=   7.
 NSaved= 7 IEnMin= 7 EnMin= -460.888366290414     IErMin= 7 ErrMin= 4.17D-05
 ErrMax= 4.17D-05  0.00D+00 EMaxC= 1.00D-01 BMatC= 2.34D-07 BMatP= 3.18D-06
 IDIUse=1 WtCom= 1.00D+00 WtEn= 0.00D+00
 Coeff-Com:  0.151D-02-0.320D-02-0.292D-02-0.133D-01-0.524D-01 0.945D-01
 Coeff-Com:  0.976D+00
 Coeff:      0.151D-02-0.320D-02-0.292D-02-0.133D-01-0.524D-01 0.945D-01
 Coeff:      0.976D+00
 Gap=     0.311 Goal=   None    Shift=    0.000
 RMSDP=2.63D-05 MaxDP=2.90D-03 DE=-4.75D-06 OVMax= 5.75D-04

 Cycle   8  Pass 1  IDiag  1:
 RMSU=  2.02D-05    CP:  6.06D-01  1.70D+00  5.26D-01  9.42D-01  1.20D+00
                    CP:  1.16D+00  1.06D+00
 E= -460.888367024666     Delta-E=       -0.000000734252 Rises=F Damp=F
 DIIS: error= 2.86D-05 at cycle   8 NSaved=   8.
 NSaved= 8 IEnMin= 8 EnMin= -460.888367024666     IErMin= 8 ErrMin= 2.86D-05
 ErrMax= 2.86D-05  0.00D+00 EMaxC= 1.00D-01 BMatC= 7.44D-08 BMatP= 2.34D-07
 IDIUse=1 WtCom= 1.00D+00 WtEn= 0.00D+00
 Coeff-Com: -0.188D-02 0.403D-02 0.277D-02-0.377D-02-0.755D-01-0.839D-01
 Coeff-Com:  0.409D+00 0.750D+00
 Coeff:     -0.188D-02 0.403D-02 0.277D-02-0.377D-02-0.755D-01-0.839D-01
 Coeff:      0.409D+00 0.750D+00
 Gap=     0.311 Goal=   None    Shift=    0.000
 RMSDP=1.57D-05 MaxDP=1.26D-03 DE=-7.34D-07 OVMax= 1.98D-04

 Cycle   9  Pass 1  IDiag  1:
 RMSU=  9.90D-06    CP:  6.06D-01  1.70D+00  5.26D-01  9.42D-01  1.20D+00
                    CP:  1.20D+00  1.14D+00  1.13D+00
 E= -460.888367177658     Delta-E=       -0.000000152992 Rises=F Damp=F
 DIIS: error= 7.29D-06 at cycle   9 NSaved=   9.
 NSaved= 9 IEnMin= 9 EnMin= -460.888367177658     IErMin= 9 ErrMin= 7.29D-06
 ErrMax= 7.29D-06  0.00D+00 EMaxC= 1.00D-01 BMatC= 5.55D-09 BMatP= 7.44D-08
 IDIUse=1 WtCom= 1.00D+00 WtEn= 0.00D+00
 Coeff-Com: -0.751D-03 0.161D-02 0.132D-02 0.126D-02-0.126D-01-0.393D-01
 Coeff-Com: -0.381D-01 0.163D+00 0.924D+00
 Coeff:     -0.751D-03 0.161D-02 0.132D-02 0.126D-02-0.126D-01-0.393D-01
 Coeff:     -0.381D-01 0.163D+00 0.924D+00
 Gap=     0.311 Goal=   None    Shift=    0.000
 RMSDP=8.16D-06 MaxDP=8.40D-04 DE=-1.53D-07 OVMax= 1.09D-04

 Cycle  10  Pass 1  IDiag  1:
 RMSU=  3.64D-06    CP:  6.06D-01  1.70D+00  5.26D-01  9.40D-01  1.20D+00
                    CP:  1.20D+00  1.14D+00  1.25D+00  1.13D+00
 E= -460.888367199538     Delta-E=       -0.000000021880 Rises=F Damp=F
 DIIS: error= 4.84D-06 at cycle  10 NSaved=  10.
 NSaved=10 IEnMin=10 EnMin= -460.888367199538     IErMin=10 ErrMin= 4.84D-06
 ErrMax= 4.84D-06  0.00D+00 EMaxC= 1.00D-01 BMatC= 8.41D-10 BMatP= 5.55D-09
 IDIUse=1 WtCom= 1.00D+00 WtEn= 0.00D+00
 Coeff-Com:  0.227D-04-0.533D-04 0.266D-04 0.810D-03 0.560D-02 0.285D-04
 Coeff-Com: -0.508D-01-0.664D-01 0.214D+00 0.897D+00
 Coeff:      0.227D-04-0.533D-04 0.266D-04 0.810D-03 0.560D-02 0.285D-04
 Coeff:     -0.508D-01-0.664D-01 0.214D+00 0.897D+00
 Gap=     0.311 Goal=   None    Shift=    0.000
 RMSDP=3.08D-06 MaxDP=3.22D-04 DE=-2.19D-08 OVMax= 3.87D-05

 Cycle  11  Pass 1  IDiag  1:
 RMSU=  7.41D-07    CP:  6.06D-01  1.70D+00  5.26D-01  9.40D-01  1.20D+00
                    CP:  1.20D+00  1.13D+00  1.30D+00  1.26D+00  1.14D+00
 E= -460.888367202388     Delta-E=       -0.000000002850 Rises=F Damp=F
 DIIS: error= 1.21D-06 at cycle  11 NSaved=  11.
 NSaved=11 IEnMin=11 EnMin= -460.888367202388     IErMin=11 ErrMin= 1.21D-06
 ErrMax= 1.21D-06  0.00D+00 EMaxC= 1.00D-01 BMatC= 1.99D-10 BMatP= 8.41D-10
 IDIUse=1 WtCom= 1.00D+00 WtEn= 0.00D+00
 Coeff-Com:  0.128D-03-0.276D-03-0.203D-03 0.111D-03 0.406D-02 0.580D-02
 Coeff-Com: -0.115D-01-0.528D-01-0.679D-01 0.350D+00 0.773D+00
 Coeff:      0.128D-03-0.276D-03-0.203D-03 0.111D-03 0.406D-02 0.580D-02
 Coeff:     -0.115D-01-0.528D-01-0.679D-01 0.350D+00 0.773D+00
 Gap=     0.311 Goal=   None    Shift=    0.000
 RMSDP=9.55D-07 MaxDP=7.04D-05 DE=-2.85D-09 OVMax= 1.52D-05

 Cycle  12  Pass 1  IDiag  1:
 RMSU=  3.90D-07    CP:  6.06D-01  1.70D+00  5.26D-01  9.40D-01  1.19D+00
                    CP:  1.20D+00  1.12D+00  1.31D+00  1.28D+00  1.24D+00
                    CP:  1.10D+00
 E= -460.888367202903     Delta-E=       -0.000000000515 Rises=F Damp=F
 DIIS: error= 4.88D-07 at cycle  12 NSaved=  12.
 NSaved=12 IEnMin=12 EnMin= -460.888367202903     IErMin=12 ErrMin= 4.88D-07
 ErrMax= 4.88D-07  0.00D+00 EMaxC= 1.00D-01 BMatC= 1.60D-11 BMatP= 1.99D-10
 IDIUse=1 WtCom= 1.00D+00 WtEn= 0.00D+00
 Coeff-Com:  0.944D-05-0.195D-04-0.275D-04-0.120D-03-0.443D-03 0.390D-03
 Coeff-Com:  0.731D-02 0.505D-02-0.448D-01-0.955D-01 0.308D-01 0.110D+01
 Coeff:      0.944D-05-0.195D-04-0.275D-04-0.120D-03-0.443D-03 0.390D-03
 Coeff:      0.731D-02 0.505D-02-0.448D-01-0.955D-01 0.308D-01 0.110D+01
 Gap=     0.311 Goal=   None    Shift=    0.000
 RMSDP=3.80D-07 MaxDP=2.53D-05 DE=-5.15D-10 OVMax= 8.07D-06

 Cycle  13  Pass 1  IDiag  1:
 RMSU=  1.41D-07    CP:  6.06D-01  1.70D+00  5.26D-01  9.40D-01  1.20D+00
                    CP:  1.20D+00  1.12D+00  1.31D+00  1.27D+00  1.29D+00
                    CP:  1.20D+00  1.46D+00
 E= -460.888367202991     Delta-E=       -0.000000000088 Rises=F Damp=F
 DIIS: error= 1.64D-07 at cycle  13 NSaved=  13.
 NSaved=13 IEnMin=13 EnMin= -460.888367202991     IErMin=13 ErrMin= 1.64D-07
 ErrMax= 1.64D-07  0.00D+00 EMaxC= 1.00D-01 BMatC= 5.21D-12 BMatP= 1.60D-11
 IDIUse=1 WtCom= 1.00D+00 WtEn= 0.00D+00
 Coeff-Com: -0.111D-04 0.243D-04 0.128D-04-0.642D-04-0.654D-03-0.552D-03
 Coeff-Com:  0.468D-02 0.899D-02-0.922D-02-0.790D-01-0.889D-01 0.471D+00
 Coeff-Com:  0.694D+00
 Coeff:     -0.111D-04 0.243D-04 0.128D-04-0.642D-04-0.654D-03-0.552D-03
 Coeff:      0.468D-02 0.899D-02-0.922D-02-0.790D-01-0.889D-01 0.471D+00
 Coeff:      0.694D+00
 Gap=     0.311 Goal=   None    Shift=    0.000
 RMSDP=1.59D-07 MaxDP=1.12D-05 DE=-8.82D-11 OVMax= 2.11D-06

 Cycle  14  Pass 1  IDiag  1:
 RMSU=  4.90D-08    CP:  6.06D-01  1.70D+00  5.26D-01  9.40D-01  1.20D+00
                    CP:  1.20D+00  1.12D+00  1.30D+00  1.26D+00  1.29D+00
                    CP:  1.21D+00  1.56D+00  1.26D+00
 E= -460.888367203009     Delta-E=       -0.000000000018 Rises=F Damp=F
 DIIS: error= 9.35D-08 at cycle  14 NSaved=  14.
 NSaved=14 IEnMin=14 EnMin= -460.888367203009     IErMin=14 ErrMin= 9.35D-08
 ErrMax= 9.35D-08  0.00D+00 EMaxC= 1.00D-01 BMatC= 5.75D-13 BMatP= 5.21D-12
 IDIUse=1 WtCom= 1.00D+00 WtEn= 0.00D+00
 Coeff-Com: -0.392D-05 0.838D-05 0.689D-05 0.108D-05-0.694D-04-0.195D-03
 Coeff-Com: -0.340D-03 0.109D-02 0.584D-02-0.434D-03-0.285D-01-0.105D+00
 Coeff-Com:  0.155D+00 0.972D+00
 Coeff:     -0.392D-05 0.838D-05 0.689D-05 0.108D-05-0.694D-04-0.195D-03
 Coeff:     -0.340D-03 0.109D-02 0.584D-02-0.434D-03-0.285D-01-0.105D+00
 Coeff:      0.155D+00 0.972D+00
 Gap=     0.311 Goal=   None    Shift=    0.000
 RMSDP=7.61D-08 MaxDP=5.41D-06 DE=-1.77D-11 OVMax= 1.30D-06

 Cycle  15  Pass 1  IDiag  1:
 RMSU=  1.69D-08    CP:  6.06D-01  1.70D+00  5.26D-01  9.40D-01  1.20D+00
                    CP:  1.20D+00  1.12D+00  1.30D+00  1.26D+00  1.29D+00
                    CP:  1.19D+00  1.60D+00  1.42D+00  1.22D+00
 E= -460.888367203013     Delta-E=       -0.000000000005 Rises=F Damp=F
 DIIS: error= 3.00D-08 at cycle  15 NSaved=  15.
 NSaved=15 IEnMin=15 EnMin= -460.888367203013     IErMin=15 ErrMin= 3.00D-08
 ErrMax= 3.00D-08  0.00D+00 EMaxC= 1.00D-01 BMatC= 9.33D-14 BMatP= 5.75D-13
 IDIUse=1 WtCom= 1.00D+00 WtEn= 0.00D+00
 Coeff-Com:  0.293D-07-0.139D-06 0.658D-06 0.744D-05 0.573D-04 0.128D-04
 Coeff-Com: -0.695D-03-0.761D-03 0.239D-02 0.904D-02 0.426D-02-0.866D-01
 Coeff-Com: -0.573D-01 0.271D+00 0.859D+00
 Coeff:      0.293D-07-0.139D-06 0.658D-06 0.744D-05 0.573D-04 0.128D-04
 Coeff:     -0.695D-03-0.761D-03 0.239D-02 0.904D-02 0.426D-02-0.866D-01
 Coeff:     -0.573D-01 0.271D+00 0.859D+00
 Gap=     0.311 Goal=   None    Shift=    0.000
 RMSDP=3.92D-08 MaxDP=2.65D-06 DE=-4.66D-12 OVMax= 4.64D-07

 Cycle  16  Pass 1  IDiag  1:
 RMSU=  7.03D-09    CP:  6.06D-01  1.70D+00  5.26D-01  9.40D-01  1.20D+00
                    CP:  1.20D+00  1.12D+00  1.30D+00  1.26D+00  1.29D+00
                    CP:  1.18D+00  1.59D+00  1.49D+00  1.40D+00  1.24D+00
 E= -460.888367203005     Delta-E=        0.000000000009 Rises=F Damp=F
 DIIS: error= 1.15D-08 at cycle  16 NSaved=  16.
 NSaved=16 IEnMin=15 EnMin= -460.888367203013     IErMin=16 ErrMin= 1.15D-08
 ErrMax= 1.15D-08  0.00D+00 EMaxC= 1.00D-01 BMatC= 1.81D-14 BMatP= 9.33D-14
 IDIUse=1 WtCom= 1.00D+00 WtEn= 0.00D+00
 Coeff-Com:  0.640D-06-0.140D-05-0.921D-06 0.215D-05 0.307D-04 0.448D-04
 Coeff-Com: -0.165D-03-0.419D-03-0.196D-03 0.322D-02 0.796D-02-0.111D-01
 Coeff-Com: -0.581D-01-0.854D-01 0.275D+00 0.869D+00
 Coeff:      0.640D-06-0.140D-05-0.921D-06 0.215D-05 0.307D-04 0.448D-04
 Coeff:     -0.165D-03-0.419D-03-0.196D-03 0.322D-02 0.796D-02-0.111D-01
 Coeff:     -0.581D-01-0.854D-01 0.275D+00 0.869D+00
 Gap=     0.311 Goal=   None    Shift=    0.000
 RMSDP=1.23D-08 MaxDP=1.04D-06 DE= 8.98D-12 OVMax= 1.88D-07

 Cycle  17  Pass 1  IDiag  1:
 RMSU=  1.97D-09    CP:  6.06D-01  1.70D+00  5.26D-01  9.40D-01  1.20D+00
                    CP:  1.20D+00  1.12D+00  1.30D+00  1.26D+00  1.29D+00
                    CP:  1.18D+00  1.59D+00  1.51D+00  1.47D+00  1.40D+00
                    CP:  1.10D+00
 E= -460.888367203001     Delta-E=        0.000000000004 Rises=F Damp=F
 DIIS: error= 4.67D-09 at cycle  17 NSaved=  17.
 NSaved=17 IEnMin=15 EnMin= -460.888367203013     IErMin=17 ErrMin= 4.67D-09
 ErrMax= 4.67D-09  0.00D+00 EMaxC= 1.00D-01 BMatC= 1.19D-15 BMatP= 1.81D-14
 IDIUse=1 WtCom= 1.00D+00 WtEn= 0.00D+00
 Large coefficients: NSaved= 17 BigCof=    0.00 CofMax=   10.00 Det=-6.69D-15
 Inversion failed.  Reducing to 16 matrices.
 Large coefficients: NSaved= 16 BigCof=    0.00 CofMax=   10.00 Det=-7.04D-15
 Inversion failed.  Reducing to 15 matrices.
 Coeff-Com: -0.102D-06-0.667D-06-0.537D-05 0.266D-05 0.639D-04 0.691D-04
 Coeff-Com: -0.308D-03-0.111D-02 0.529D-03 0.107D-01-0.269D-03-0.314D-01
 Coeff-Com: -0.844D-01 0.440D-01 0.106D+01
 Coeff:     -0.102D-06-0.667D-06-0.537D-05 0.266D-05 0.639D-04 0.691D-04
 Coeff:     -0.308D-03-0.111D-02 0.529D-03 0.107D-01-0.269D-03-0.314D-01
 Coeff:     -0.844D-01 0.440D-01 0.106D+01
 Gap=     0.311 Goal=   None    Shift=    0.000
 RMSDP=3.58D-09 MaxDP=1.79D-07 DE= 3.87D-12 OVMax= 5.80D-08

 SCF Done:  E(RwB97XD) =  -460.888367203     A.U. after   17 cycles
            NFock= 17  Conv=0.36D-08     -V/T= 1.9983
 KE= 4.616891229399D+02 PE=-2.199723778917D+03 EE= 7.146389885227D+02
 Leave Link  502 at Mon Nov 21 14:53:15 2022, MaxMem= 16106127360 cpu:             837.2 elap:              26.5
 (Enter /opt/ap/G16/B01/g16/l601.exe)
 Copying SCF densities to generalized density rwf, IOpCl= 0 IROHF=0.

 **********************************************************************

            Population analysis using the SCF Density.

 **********************************************************************

 Orbital symmetries:
       Occupied  (A) (A) (A) (A) (A) (A) (A) (A) (A) (A) (A) (A)
                 (A) (A) (A) (A) (A) (A) (A) (A) (A) (A) (A) (A)
                 (A) (A) (A) (A) (A) (A) (A) (A) (A) (A) (A) (A)
                 (A) (A)
       Virtual   (A) (A) (A) (A) (A) (A) (A) (A) (A) (A) (A) (A)
                 (A) (A) (A) (A) (A) (A) (A) (A) (A) (A) (A) (A)
                 (A) (A) (A) (A) (A) (A) (A) (A) (A) (A) (A) (A)
                 (A) (A) (A) (A) (A) (A) (A) (A) (A) (A) (A) (A)
                 (A) (A) (A) (A) (A) (A) (A) (A) (A) (A) (A) (A)
                 (A) (A) (A) (A) (A) (A) (A) (A) (A) (A) (A) (A)
                 (A) (A) (A) (A) (A) (A) (A) (A) (A) (A) (A) (A)
                 (A) (A) (A) (A) (A) (A) (A) (A) (A) (A) (A) (A)
                 (A) (A) (A) (A) (A) (A) (A) (A) (A) (A) (A) (A)
                 (A) (A) (A) (A) (A) (A) (A) (A) (A) (A) (A) (A)
                 (A) (A) (A) (A) (A) (A) (A) (A) (A) (A) (A) (A)
                 (A) (A) (A) (A) (A) (A) (A) (A) (A) (A) (A) (A)
                 (A) (A) (A) (A) (A) (A) (A) (A) (A) (A) (A) (A)
                 (A) (A) (A) (A) (A) (A) (A) (A) (A) (A) (A) (A)
                 (A) (A) (A) (A) (A) (A) (A) (A) (A) (A) (A) (A)
                 (A) (A) (A) (A) (A) (A) (A) (A) (A) (A) (A) (A)
                 (A) (A) (A) (A) (A) (A) (A) (A) (A) (A) (A) (A)
                 (A) (A) (A) (A) (A) (A) (A) (A) (A) (A) (A) (A)
                 (A) (A) (A) (A) (A) (A) (A) (A) (A) (A) (A) (A)
                 (A) (A) (A) (A) (A) (A) (A) (A) (A) (A) (A) (A)
                 (A) (A) (A) (A) (A) (A) (A) (A) (A) (A) (A) (A)
                 (A) (A) (A) (A) (A) (A)
 The electronic state is 1-A.
 Alpha  occ. eigenvalues --  -19.25710 -10.34712 -10.29634 -10.29395 -10.27128
 Alpha  occ. eigenvalues --  -10.26986 -10.26912 -10.26846 -10.26697 -10.26693
 Alpha  occ. eigenvalues --  -10.26600  -1.19310  -0.98661  -0.94088  -0.88381
 Alpha  occ. eigenvalues --   -0.86139  -0.83981  -0.75135  -0.73586  -0.72293
 Alpha  occ. eigenvalues --   -0.66391  -0.64477  -0.61709  -0.59848  -0.55508
 Alpha  occ. eigenvalues --   -0.54443  -0.52731  -0.52283  -0.51206  -0.48485
 Alpha  occ. eigenvalues --   -0.47540  -0.44708  -0.42968  -0.42252  -0.40304
 Alpha  occ. eigenvalues --   -0.35919  -0.32591  -0.29105
 Alpha virt. eigenvalues --    0.01992   0.03971   0.04538   0.04763   0.04957
 Alpha virt. eigenvalues --    0.06232   0.06492   0.08451   0.08795   0.08871
 Alpha virt. eigenvalues --    0.10380   0.11595   0.12146   0.13128   0.13742
 Alpha virt. eigenvalues --    0.14958   0.15093   0.15698   0.16159   0.16726
 Alpha virt. eigenvalues --    0.16884   0.16993   0.17591   0.18054   0.18335
 Alpha virt. eigenvalues --    0.18448   0.19287   0.19454   0.20086   0.20689
 Alpha virt. eigenvalues --    0.21586   0.21844   0.22435   0.22559   0.22896
 Alpha virt. eigenvalues --    0.24549   0.25679   0.25998   0.26303   0.26941
 Alpha virt. eigenvalues --    0.27647   0.28816   0.29352   0.29791   0.30233
 Alpha virt. eigenvalues --    0.31339   0.31885   0.32258   0.32778   0.33169
 Alpha virt. eigenvalues --    0.33892   0.34660   0.35075   0.35554   0.36023
 Alpha virt. eigenvalues --    0.36651   0.37817   0.38136   0.38735   0.39395
 Alpha virt. eigenvalues --    0.40160   0.41599   0.41874   0.43021   0.43209
 Alpha virt. eigenvalues --    0.44447   0.44913   0.46756   0.48182   0.48526
 Alpha virt. eigenvalues --    0.51322   0.57634   0.58467   0.60182   0.61403
 Alpha virt. eigenvalues --    0.62020   0.62777   0.65601   0.66020   0.66428
 Alpha virt. eigenvalues --    0.67275   0.67426   0.68354   0.68715   0.70152
 Alpha virt. eigenvalues --    0.70493   0.71009   0.71571   0.72498   0.72773
 Alpha virt. eigenvalues --    0.74954   0.75381   0.76439   0.79123   0.81424
 Alpha virt. eigenvalues --    0.82324   0.83750   0.85730   0.87043   0.87810
 Alpha virt. eigenvalues --    0.89392   0.90756   0.91671   0.92736   0.93436
 Alpha virt. eigenvalues --    0.95947   0.96729   0.97403   0.99984   1.00486
 Alpha virt. eigenvalues --    1.01035   1.02272   1.04114   1.05130   1.05852
 Alpha virt. eigenvalues --    1.06776   1.07649   1.10120   1.11103   1.12141
 Alpha virt. eigenvalues --    1.14321   1.15127   1.18495   1.19308   1.20449
 Alpha virt. eigenvalues --    1.21427   1.23124   1.23894   1.24829   1.25428
 Alpha virt. eigenvalues --    1.27688   1.34566   1.35824   1.42578   1.46507
 Alpha virt. eigenvalues --    1.49547   1.55957   1.57551   1.58040   1.59494
 Alpha virt. eigenvalues --    1.61899   1.62363   1.63247   1.64689   1.70373
 Alpha virt. eigenvalues --    1.70576   1.71173   1.71339   1.72700   1.75201
 Alpha virt. eigenvalues --    1.76326   1.77840   1.80413   1.81192   1.85009
 Alpha virt. eigenvalues --    1.89893   1.90566   1.92457   1.92790   1.93441
 Alpha virt. eigenvalues --    1.96167   1.97546   1.98140   2.00383   2.03677
 Alpha virt. eigenvalues --    2.04853   2.05646   2.07878   2.08874   2.09359
 Alpha virt. eigenvalues --    2.10040   2.12388   2.13487   2.16311   2.19545
 Alpha virt. eigenvalues --    2.24936   2.27479   2.28874   2.30544   2.34918
 Alpha virt. eigenvalues --    2.37648   2.39631   2.41798   2.46634   2.51249
 Alpha virt. eigenvalues --    2.52629   2.53721   2.55272   2.55907   2.57710
 Alpha virt. eigenvalues --    2.66351   2.70736   2.72255   2.72961   2.76522
 Alpha virt. eigenvalues --    2.81377   2.81579   2.84518   2.88595   2.89915
 Alpha virt. eigenvalues --    2.92908   2.94215   2.95572   2.99226   3.01549
 Alpha virt. eigenvalues --    3.02910   3.03757   3.04712   3.06742   3.07551
 Alpha virt. eigenvalues --    3.08685   3.11334   3.17413   3.18761   3.19493
 Alpha virt. eigenvalues --    3.22347   3.24445   3.28577   3.33893   3.35374
 Alpha virt. eigenvalues --    3.38428   3.46065   3.48237   3.51145   3.53317
 Alpha virt. eigenvalues --    3.56150   3.59516   3.74007   3.77246   3.79510
 Alpha virt. eigenvalues --    3.84251   3.89488   3.90849   3.99700   4.12317
 Alpha virt. eigenvalues --    4.28078   4.43734   4.44717   4.46266   4.52327
 Alpha virt. eigenvalues --    4.57683   4.62351   4.94614   4.97576   5.25279
 Alpha virt. eigenvalues --    5.62030   6.15993  23.80317  24.06908  24.15950
 Alpha virt. eigenvalues --   24.17636  24.22068  24.26728  24.41180  24.44802
 Alpha virt. eigenvalues --   24.51821  24.53753  50.19610
          Condensed to atoms (all electrons):
               1          2          3          4          5          6
     1  C   28.229652  -4.376936  -5.306978  -4.348679  -2.683994   0.570502
     2  C   -4.376936  20.640585  -3.764760  -0.218721  -2.072795  -4.080485
     3  C   -5.306978  -3.764760  15.512805   1.996252  -0.042801  -0.803342
     4  C   -4.348679  -0.218721   1.996252   9.761410  -0.169951  -0.674987
     5  C   -2.683994  -2.072795  -0.042801  -0.169951   8.946676   1.972952
     6  C    0.570502  -4.080485  -0.803342  -0.674987   1.972952  10.513523
     7  C   -8.082299   0.791820   0.878029  -0.634720   0.517978  -1.476663
     8  O   -0.580371  -0.252428   0.904034  -0.026276   0.003339   0.070966
     9  C    1.822142  -0.743282  -1.219952  -0.009521  -0.296272   0.603286
    10  H   -0.182849   0.036754   0.074134   0.503457   0.050312  -0.063817
    11  C   -0.436127  -0.164209   0.324096  -0.059793   0.300651  -0.871312
    12  H   -0.039350  -0.034798  -0.047137   0.006585   0.495117   0.061383
    13  C    0.390494   0.571883  -1.557350   0.367910  -0.836392  -0.349795
    14  H    0.297860   0.077691  -0.365802  -0.010434   0.031917   0.461199
    15  H   -0.126866   0.018740  -0.128808   0.004270  -0.015083  -0.025829
    16  H    0.190099  -0.020359   0.008719   0.008622  -0.004331   0.041880
    17  H    0.160958  -0.035903   0.009131  -0.122434   0.001621   0.021761
    18  H   -0.026440   0.044329  -0.029293   0.025162  -0.050893  -0.023467
    19  H    0.032427  -0.064235   0.064969  -0.023197  -0.027141  -0.044069
               7          8          9         10         11         12
     1  C   -8.082299  -0.580371   1.822142  -0.182849  -0.436127  -0.039350
     2  C    0.791820  -0.252428  -0.743282   0.036754  -0.164209  -0.034798
     3  C    0.878029   0.904034  -1.219952   0.074134   0.324096  -0.047137
     4  C   -0.634720  -0.026276  -0.009521   0.503457  -0.059793   0.006585
     5  C    0.517978   0.003339  -0.296272   0.050312   0.300651   0.495117
     6  C   -1.476663   0.070966   0.603286  -0.063817  -0.871312   0.061383
     7  C   15.188759  -0.003584  -0.617161   0.078849   0.186484   0.001703
     8  O   -0.003584   8.017621  -0.007119   0.000464  -0.004131   0.000434
     9  C   -0.617161  -0.007119   6.531827  -0.163847  -0.422660   0.046187
    10  H    0.078849   0.000464  -0.163847   0.504499   0.058196  -0.002586
    11  C    0.186484  -0.004131  -0.422660   0.058196   6.460911  -0.122882
    12  H    0.001703   0.000434   0.046187  -0.002586  -0.122882   0.505308
    13  C   -1.083336  -0.068366   0.178798  -0.008207   0.553168   0.000633
    14  H   -0.204677  -0.039120   0.028611  -0.000857   0.014391   0.001732
    15  H    0.688434  -0.017101  -0.054833   0.002855   0.000832  -0.000370
    16  H   -0.226110   0.280932   0.002900   0.000021   0.000102  -0.000027
    17  H   -0.199520  -0.000383   0.499448  -0.023166  -0.005298   0.001122
    18  H   -0.010545  -0.000419   0.006209   0.000411   0.456554  -0.018260
    19  H    0.027157   0.003389  -0.005730  -0.000185  -0.050767   0.000317
              13         14         15         16         17         18
     1  C    0.390494   0.297860  -0.126866   0.190099   0.160958  -0.026440
     2  C    0.571883   0.077691   0.018740  -0.020359  -0.035903   0.044329
     3  C   -1.557350  -0.365802  -0.128808   0.008719   0.009131  -0.029293
     4  C    0.367910  -0.010434   0.004270   0.008622  -0.122434   0.025162
     5  C   -0.836392   0.031917  -0.015083  -0.004331   0.001621  -0.050893
     6  C   -0.349795   0.461199  -0.025829   0.041880   0.021761  -0.023467
     7  C   -1.083336  -0.204677   0.688434  -0.226110  -0.199520  -0.010545
     8  O   -0.068366  -0.039120  -0.017101   0.280932  -0.000383  -0.000419
     9  C    0.178798   0.028611  -0.054833   0.002900   0.499448   0.006209
    10  H   -0.008207  -0.000857   0.002855   0.000021  -0.023166   0.000411
    11  C    0.553168   0.014391   0.000832   0.000102  -0.005298   0.456554
    12  H    0.000633   0.001732  -0.000370  -0.000027   0.001122  -0.018260
    13  C    7.610787   0.032823  -0.004236   0.016508   0.005017  -0.045040
    14  H    0.032823   0.520163  -0.002542   0.000634   0.001585   0.001895
    15  H   -0.004236  -0.002542   0.504528  -0.005789  -0.018493  -0.000149
    16  H    0.016508   0.000634  -0.005789   0.428119   0.001036   0.000010
    17  H    0.005017   0.001585  -0.018493   0.001036   0.511564   0.000160
    18  H   -0.045040   0.001895  -0.000149   0.000010   0.000160   0.504770
    19  H    0.433804  -0.022693   0.000323  -0.000192  -0.000201  -0.013799
              19
     1  C    0.032427
     2  C   -0.064235
     3  C    0.064969
     4  C   -0.023197
     5  C   -0.027141
     6  C   -0.044069
     7  C    0.027157
     8  O    0.003389
     9  C   -0.005730
    10  H   -0.000185
    11  C   -0.050767
    12  H    0.000317
    13  C    0.433804
    14  H   -0.022693
    15  H    0.000323
    16  H   -0.000192
    17  H   -0.000201
    18  H   -0.013799
    19  H    0.503589
 Mulliken charges:
               1
     1  C    0.496755
     2  C   -0.352891
     3  C   -0.505947
     4  C   -0.374957
     5  C   -0.120910
     6  C    0.096315
     7  C    0.179403
     8  O   -0.281879
     9  C   -0.179032
    10  H    0.135561
    11  C   -0.218207
    12  H    0.144888
    13  C   -0.209103
    14  H    0.175624
    15  H    0.180117
    16  H    0.277227
    17  H    0.191995
    18  H    0.178806
    19  H    0.186235
 Sum of Mulliken charges =  -0.00000
 Mulliken charges with hydrogens summed into heavy atoms:
               1
     1  C    0.496755
     2  C   -0.352891
     3  C   -0.505947
     4  C   -0.239396
     5  C    0.023978
     6  C    0.271939
     7  C    0.359520
     8  O   -0.004652
     9  C    0.012963
    11  C   -0.039401
    13  C   -0.022868
 Electronic spatial extent (au):  <R**2>=           1507.2277
 Charge=             -0.0000 electrons
 Dipole moment (field-independent basis, Debye):
    X=             -0.2355    Y=             -0.6270    Z=              1.2131  Tot=              1.3857
 Quadrupole moment (field-independent basis, Debye-Ang):
   XX=            -53.1362   YY=            -57.9761   ZZ=            -66.6852
   XY=              0.3212   XZ=             -2.7508   YZ=              3.3132
 Traceless Quadrupole moment (field-independent basis, Debye-Ang):
   XX=              6.1296   YY=              1.2897   ZZ=             -7.4193
   XY=              0.3212   XZ=             -2.7508   YZ=              3.3132
 Octapole moment (field-independent basis, Debye-Ang**2):
  XXX=             -7.3646  YYY=             -0.1028  ZZZ=              1.1123  XYY=             -1.1098
  XXY=              3.9926  XXZ=              5.8671  XZZ=             -5.7561  YZZ=              7.2230
  YYZ=              8.7717  XYZ=             -7.5477
 Hexadecapole moment (field-independent basis, Debye-Ang**3):
 XXXX=          -1089.9923 YYYY=           -664.3039 ZZZZ=            -77.1387 XXXY=            -11.6954
 XXXZ=            -12.6731 YYYX=             -9.3447 YYYZ=             22.0239 ZZZX=             -2.9037
 ZZZY=              3.5807 XXYY=           -287.8422 XXZZ=           -234.0501 YYZZ=           -135.8910
 XXYZ=             15.5146 YYXZ=            -18.3560 ZZXY=            -12.7005
 N-N= 5.625073002510D+02 E-N=-2.199723778829D+03  KE= 4.616891229399D+02
 No NMR shielding tensors so no spin-rotation constants.
 Leave Link  601 at Mon Nov 21 14:53:15 2022, MaxMem= 16106127360 cpu:               4.7 elap:               0.2
 (Enter /opt/ap/G16/B01/g16/l9999.exe)
 1\1\GINC-N10\SP\RwB97XD\6-311++G(d,p)\C10H8O1\ROOT\21-Nov-2022\0\\#P w
 B97XD/6-311++G(d,p) scf=maxcycle=512\\_conf013.gjf nmol_natom 1_19\\0,
 1\C\C,1,1.40879539\C,1,1.42289824,2,117.24956717\C,2,1.41887971,1,119.
 07594714,3,0.16510261,0\C,2,1.42227783,1,117.46262303,3,-179.44443577,
 0\C,1,1.42440336,2,119.00293897,4,179.73740031,0\C,3,1.35510367,1,122.
 33979448,2,-0.36120568,0\O,3,1.37615658,1,115.04370777,2,-179.5931286,
 0\C,4,1.34577659,2,121.30210156,1,0.17277764,0\H,4,0.93023405,2,119.33
 469462,1,-179.75965297,0\C,5,1.34486794,2,122.06073707,1,-0.32265162,0
 \H,5,0.92957893,2,118.96449269,1,179.64671542,0\C,6,1.35980576,1,121.1
 112438,2,0.11625163,0\H,6,0.92999796,1,119.43671105,2,-179.87270235,0\
 H,7,0.93052813,3,120.28038366,1,-179.76477098,0\H,8,0.81991994,3,109.4
 8785721,1,-115.,0\H,9,0.93027331,4,119.71917791,2,179.60144151,0\H,11,
 0.92987565,5,119.70372857,2,-179.69197286,0\H,13,0.93032717,6,120.1452
 4692,1,179.85241379,0\\Version=ES64L-G16RevB.01\State=1-A\HF=-460.8883
 672\RMSD=3.584e-09\Dipole=0.1493502,-0.4742987,0.2234953\Quadrupole=4.
 4740202,-5.4547268,0.9807066,-1.3895448,-0.6021567,2.9504211\PG=C01 [X
 (C10H8O1)]\\@


 ONE OF THE BENEFITS OF A COLLEGE EDUCATION
 IS TO SHOW THE BOY ITS LITTLE AVAIL 
                                    EMERSON IN 'CULTURE'
 Job cpu time:       0 days  0 hours 14 minutes 38.4 seconds.
 Elapsed time:       0 days  0 hours  0 minutes 27.8 seconds.
 File lengths (MBytes):  RWF=     51 Int=      0 D2E=      0 Chk=      6 Scr=      1
 Normal termination of Gaussian 16 at Mon Nov 21 14:53:15 2022.
