 Entering Gaussian System, Link 0=g16
 Input=_conf008.gjf
 Output=_conf008.log
 Initial command:
 /opt/ap/G16/B01/g16/l1.exe "/tmp2/scr/Gau-3934.inp" -scrdir="/tmp2/scr/"
 Entering Link 1 = /opt/ap/G16/B01/g16/l1.exe PID=      3935.
  
 Copyright (c) 1988-2017, Gaussian, Inc.  All Rights Reserved.
  
 This is part of the Gaussian(R) 16 program.  It is based on
 the Gaussian(R) 09 system (copyright 2009, Gaussian, Inc.),
 the Gaussian(R) 03 system (copyright 2003, Gaussian, Inc.),
 the Gaussian(R) 98 system (copyright 1998, Gaussian, Inc.),
 the Gaussian(R) 94 system (copyright 1995, Gaussian, Inc.),
 the Gaussian 92(TM) system (copyright 1992, Gaussian, Inc.),
 the Gaussian 90(TM) system (copyright 1990, Gaussian, Inc.),
 the Gaussian 88(TM) system (copyright 1988, Gaussian, Inc.),
 the Gaussian 86(TM) system (copyright 1986, Carnegie Mellon
 University), and the Gaussian 82(TM) system (copyright 1983,
 Carnegie Mellon University). Gaussian is a federally registered
 trademark of Gaussian, Inc.
  
 This software contains proprietary and confidential information,
 including trade secrets, belonging to Gaussian, Inc.
  
 This software is provided under written license and may be
 used, copied, transmitted, or stored only in accord with that
 written license.
  
 The following legend is applicable only to US Government
 contracts under FAR:
  
                    RESTRICTED RIGHTS LEGEND
  
 Use, reproduction and disclosure by the US Government is
 subject to restrictions as set forth in subparagraphs (a)
 and (c) of the Commercial Computer Software - Restricted
 Rights clause in FAR 52.227-19.
  
 Gaussian, Inc.
 340 Quinnipiac St., Bldg. 40, Wallingford CT 06492
  
  
 ---------------------------------------------------------------
 Warning -- This program may not be used in any manner that
 competes with the business of Gaussian, Inc. or will provide
 assistance to any competitor of Gaussian, Inc.  The licensee
 of this program is prohibited from giving any competitor of
 Gaussian, Inc. access to this program.  By using this program,
 the user acknowledges that Gaussian, Inc. is engaged in the
 business of creating and licensing software in the field of
 computational chemistry and represents and warrants to the
 licensee that it is not a competitor of Gaussian, Inc. and that
 it will not use this program in any manner prohibited above.
 ---------------------------------------------------------------
  

 Cite this work as:
 Gaussian 16, Revision B.01,
 M. J. Frisch, G. W. Trucks, H. B. Schlegel, G. E. Scuseria, 
 M. A. Robb, J. R. Cheeseman, G. Scalmani, V. Barone, 
 G. A. Petersson, H. Nakatsuji, X. Li, M. Caricato, A. V. Marenich, 
 J. Bloino, B. G. Janesko, R. Gomperts, B. Mennucci, H. P. Hratchian, 
 J. V. Ortiz, A. F. Izmaylov, J. L. Sonnenberg, D. Williams-Young, 
 F. Ding, F. Lipparini, F. Egidi, J. Goings, B. Peng, A. Petrone, 
 T. Henderson, D. Ranasinghe, V. G. Zakrzewski, J. Gao, N. Rega, 
 G. Zheng, W. Liang, M. Hada, M. Ehara, K. Toyota, R. Fukuda, 
 J. Hasegawa, M. Ishida, T. Nakajima, Y. Honda, O. Kitao, H. Nakai, 
 T. Vreven, K. Throssell, J. A. Montgomery, Jr., J. E. Peralta, 
 F. Ogliaro, M. J. Bearpark, J. J. Heyd, E. N. Brothers, K. N. Kudin, 
 V. N. Staroverov, T. A. Keith, R. Kobayashi, J. Normand, 
 K. Raghavachari, A. P. Rendell, J. C. Burant, S. S. Iyengar, 
 J. Tomasi, M. Cossi, J. M. Millam, M. Klene, C. Adamo, R. Cammi, 
 J. W. Ochterski, R. L. Martin, K. Morokuma, O. Farkas, 
 J. B. Foresman, and D. J. Fox, Gaussian, Inc., Wallingford CT, 2016.
 
 ******************************************
 Gaussian 16:  ES64L-G16RevB.01 20-Dec-2017
                21-Nov-2022 
 ******************************************
 %nprocshared=32
 Will use up to   32 processors via shared memory.
 %mem=120GB
 %chk=_conf008.chk
 ----------------------------------------
 #P wB97XD/6-311++G(d,p) scf=maxcycle=512
 ----------------------------------------
 1/38=1,172=1/1;
 2/12=2,17=6,18=5,40=1/2;
 3/5=4,6=6,7=1111,11=2,25=1,30=1,74=-58/1,2,3;
 4//1;
 5/5=2,7=512,38=5/2;
 6/7=2,8=2,9=2,10=2,28=1/1;
 99/5=1,9=1/99;
 Leave Link    1 at Mon Nov 21 14:52:21 2022, MaxMem= 16106127360 cpu:               2.5 elap:               0.1
 (Enter /opt/ap/G16/B01/g16/l101.exe)
 ----------------------------
 _conf008.gjf nmol_natom 1_19
 ----------------------------
 Symbolic Z-matrix:
 Charge =  0 Multiplicity = 1
 C
 C                    1     1.4088 
 C                    1     1.4229   2     117.24957 
 C                    2     1.41888  1     119.07595  3     0.1651   0
 C                    2     1.42228  1     117.46262  3    -179.44444  0
 C                    1     1.4244   2     119.00294  4     179.7374  0
 C                    3     1.3551   1     122.33979  2    -0.36121  0
 O                    3     1.37616  1     115.04371  2    -179.59313  0
 C                    4     1.34578  2     121.3021  1     0.17278  0
 H                    4     0.93023  2     119.33469  1    -179.75965  0
 C                    5     1.34487  2     122.06074  1    -0.32265  0
 H                    5     0.92958  2     118.96449  1     179.64672  0
 C                    6     1.35981  1     121.11124  2     0.11625  0
 H                    6     0.93     1     119.43671  2    -179.8727  0
 H                    7     0.93053  3     120.28038  1    -179.76477  0
 H                    8     0.81992  3     109.48786  1    -140.     0
 H                    9     0.93027  4     119.71918  2     179.60144  0
 H                    11    0.92988  5     119.70373  2    -179.69197  0
 H                    13    0.93033  6     120.14525  1     179.85241  0
 
 ITRead=  0  0  0  0  0  0  0  0  0  0  0  0  0  0  0  0  0  0  0
 MicOpt= -1 -1 -1 -1 -1 -1 -1 -1 -1 -1 -1 -1 -1 -1 -1 -1 -1 -1 -1
 NAtoms=     19 NQM=       19 NQMF=       0 NMMI=      0 NMMIF=      0
                NMic=       0 NMicF=      0.
                    Isotopes and Nuclear Properties:
 (Nuclear quadrupole moments (NQMom) in fm**2, nuclear magnetic moments (NMagM)
  in nuclear magnetons)

  Atom         1           2           3           4           5           6           7           8           9          10
 IAtWgt=          12          12          12          12          12          12          12          16          12           1
 AtmWgt=  12.0000000  12.0000000  12.0000000  12.0000000  12.0000000  12.0000000  12.0000000  15.9949146  12.0000000   1.0078250
 NucSpn=           0           0           0           0           0           0           0           0           0           1
 AtZEff=  -0.0000000  -0.0000000  -0.0000000  -0.0000000  -0.0000000  -0.0000000  -0.0000000  -0.0000000  -0.0000000  -0.0000000
 NQMom=    0.0000000   0.0000000   0.0000000   0.0000000   0.0000000   0.0000000   0.0000000   0.0000000   0.0000000   0.0000000
 NMagM=    0.0000000   0.0000000   0.0000000   0.0000000   0.0000000   0.0000000   0.0000000   0.0000000   0.0000000   2.7928460
 AtZNuc=   6.0000000   6.0000000   6.0000000   6.0000000   6.0000000   6.0000000   6.0000000   8.0000000   6.0000000   1.0000000

  Atom        11          12          13          14          15          16          17          18          19
 IAtWgt=          12           1          12           1           1           1           1           1           1
 AtmWgt=  12.0000000   1.0078250  12.0000000   1.0078250   1.0078250   1.0078250   1.0078250   1.0078250   1.0078250
 NucSpn=           0           1           0           1           1           1           1           1           1
 AtZEff=  -0.0000000  -0.0000000  -0.0000000  -0.0000000  -0.0000000  -0.0000000  -0.0000000  -0.0000000  -0.0000000
 NQMom=    0.0000000   0.0000000   0.0000000   0.0000000   0.0000000   0.0000000   0.0000000   0.0000000   0.0000000
 NMagM=    0.0000000   2.7928460   0.0000000   2.7928460   2.7928460   2.7928460   2.7928460   2.7928460   2.7928460
 AtZNuc=   6.0000000   1.0000000   6.0000000   1.0000000   1.0000000   1.0000000   1.0000000   1.0000000   1.0000000
 Leave Link  101 at Mon Nov 21 14:52:21 2022, MaxMem= 16106127360 cpu:               5.5 elap:               0.2
 (Enter /opt/ap/G16/B01/g16/l202.exe)
                          Input orientation:                          
 ---------------------------------------------------------------------
 Center     Atomic      Atomic             Coordinates (Angstroms)
 Number     Number       Type             X           Y           Z
 ---------------------------------------------------------------------
      1          6           0        0.000000    0.000000    0.000000
      2          6           0        0.000000    0.000000    1.408795
      3          6           0        1.264986    0.000000   -0.651498
      4          6           0        1.240062    0.003573    2.098326
      5          6           0       -1.261945   -0.012237    2.064707
      6          6           0       -1.245741   -0.009299   -0.690628
      7          6           0        2.433644    0.007218    0.034427
      8          8           0        1.212032    0.008854   -2.026607
      9          6           0        2.409936    0.010412    1.433147
     10          1           0        1.244276    0.000184    3.028545
     11          6           0       -2.421000   -0.017057    1.382624
     12          1           0       -1.286266   -0.017488    2.993953
     13          6           0       -2.424704   -0.015738   -0.013076
     14          1           0       -1.252769   -0.011151   -1.620598
     15          1           0        3.245045    0.010306   -0.421097
     16          1           0        1.791562   -0.487996   -2.325863
     17          1           0        3.210137    0.018260    1.907515
     18          1           0       -3.227740   -0.020753    1.845035
     19          1           0       -3.230632   -0.019714   -0.477804
 ---------------------------------------------------------------------
                    Distance matrix (angstroms):
                    1          2          3          4          5
     1  C    0.000000
     2  C    1.408795   0.000000
     3  C    1.422898   2.417643   0.000000
     4  C    2.437363   1.418880   2.749940   0.000000
     5  C    2.419849   1.422278   3.709892   2.502283   0.000000
     6  C    1.424403   2.441216   2.511049   3.735994   2.755385
     7  C    2.433898   2.794917   1.355104   2.384184   4.216609
     8  O    2.361406   3.642951   1.376157   4.125032   4.781198
     9  C    2.803892   2.410081   2.378396   1.345777   3.725867
    10  H    3.274188   2.042501   3.680101   0.930234   2.685197
    11  C    2.788042   2.421201   4.210040   3.730420   1.344868
    12  H    3.258610   2.041448   4.449551   2.680471   0.929579
    13  C    2.424790   2.810899   3.744548   4.229527   2.381009
    14  H    2.048388   3.278228   2.697845   4.477144   3.685317
    15  H    3.272269   3.725443   1.993445   3.219859   5.147104
    16  H    2.976151   4.170792   1.821790   4.485448   5.369111
    17  H    3.734157   3.248697   3.214420   1.979348   4.474947
    18  H    3.717915   3.257153   5.139815   4.475043   1.978050
    19  H    3.265834   3.741207   4.499015   5.159854   3.215610
                    6          7          8          9         10
     6  C    0.000000
     7  C    3.750180   0.000000
     8  O    2.797466   2.395871   0.000000
     9  C    4.227858   1.398925   3.661267   0.000000
    10  H    4.475771   3.221706   5.055262   1.975895   0.000000
    11  C    2.383205   5.038431   4.982213   4.831278   4.017910
    12  H    3.684813   4.753644   5.607870   4.012331   2.530840
    13  C    1.359806   4.858634   4.157013   5.046383   4.765829
    14  H    0.929998   4.040926   2.498097   4.768777   5.277300
    15  H    4.498910   0.930528   2.590522   2.033624   3.987882
    16  H    3.482579   2.495690   0.819920   3.841998   5.404398
    17  H    5.158096   2.027689   4.412463   0.930273   2.263105
    18  H    3.218391   5.943934   5.890846   5.652788   4.626021
    19  H    1.996295   5.687453   4.704984   5.955556   5.685040
                   11         12         13         14         15
    11  C    0.000000
    12  H    1.970788   0.000000
    13  C    1.395705   3.215317   0.000000
    14  H    3.222443   4.614677   1.989366   0.000000
    15  H    5.946277   5.674162   5.684470   4.655061   0.000000
    16  H    5.632081   6.163996   4.832071   3.161129   2.447253
    17  H    5.655657   4.625934   5.953256   5.689110   2.328887
    18  H    0.929876   2.255958   2.024221   3.988887   6.858080
    19  H    2.028966   3.979153   0.930327   2.284293   6.475995
                   16         17         18         19
    16  H    0.000000
    17  H    4.493344   0.000000
    18  H    6.542790   6.438299   0.000000
    19  H    5.371876   6.868384   2.322841   0.000000
 Stoichiometry    C10H8O
 Framework group  C1[X(C10H8O)]
 Deg. of freedom    51
 Full point group                 C1      NOp   1
 Largest Abelian subgroup         C1      NOp   1
 Largest concise Abelian subgroup C1      NOp   1
                         Standard orientation:                         
 ---------------------------------------------------------------------
 Center     Atomic      Atomic             Coordinates (Angstroms)
 Number     Number       Type             X           Y           Z
 ---------------------------------------------------------------------
      1          6           0        0.031518    0.429477   -0.012306
      2          6           0        0.369635   -0.938095   -0.000977
      3          6           0       -1.352857    0.758329   -0.013966
      4          6           0       -0.668695   -1.905081    0.004504
      5          6           0        1.752126   -1.271857    0.012963
      6          6           0        1.075102    1.398939   -0.012086
      7          6           0       -2.322737   -0.188051   -0.012361
      8          8           0       -1.631490    2.105833   -0.034027
      9          6           0       -1.964026   -1.540181   -0.004374
     10          1           0       -0.449527   -2.809062    0.015386
     11          6           0        2.713605   -0.331531    0.009019
     12          1           0        1.998764   -2.168031    0.025618
     13          6           0        2.382226    1.024206   -0.003534
     14          1           0        0.858729    2.303399   -0.017732
     15          1           0       -3.219752    0.059390   -0.016816
     16          1           0       -2.265498    2.261467    0.462037
     17          1           0       -2.626995   -2.192774   -0.006143
     18          1           0        3.607750   -0.586772    0.014151
     19          1           0        3.053065    1.668783   -0.005576
 ---------------------------------------------------------------------
 Rotational constants (GHZ):           2.0114997           1.1483736           0.7315358
 Leave Link  202 at Mon Nov 21 14:52:21 2022, MaxMem= 16106127360 cpu:               0.2 elap:               0.0
 (Enter /opt/ap/G16/B01/g16/l301.exe)
 Standard basis: 6-311++G(d,p) (5D, 7F)
 Ernie: Thresh=  0.10000D-02 Tol=  0.10000D-05 Strict=F.
 There are   309 symmetry adapted cartesian basis functions of A   symmetry.
 There are   298 symmetry adapted basis functions of A   symmetry.
   298 basis functions,   468 primitive gaussians,   309 cartesian basis functions
    38 alpha electrons       38 beta electrons
       nuclear repulsion energy       562.4111299419 Hartrees.
 IExCor= 4639 DFT=T Ex+Corr=wB97XD ExCW=0 ScaHFX=  1.000000
 ScaDFX=  1.000000  1.000000  1.000000  1.000000 ScalE2=  1.000000  1.000000
 IRadAn=      5 IRanWt=     -1 IRanGd=            0 ICorTp=0 IEmpDi=121
 HFx  wShort=  0.000000 wLong=  0.200000 cFull=  0.222036 cShort=  0.000000 cLong=  0.777964
 DFx  wShort=  0.000000 wLong=  0.200000 cFull=  0.000000 cShort=  0.000000 cLong=  1.000000
 NAtoms=   19 NActive=   19 NUniq=   19 SFac= 1.00D+00 NAtFMM=   60 NAOKFM=F Big=F
 Integral buffers will be    131072 words long.
 Raffenetti 2 integral format.
 Two-electron integral symmetry is turned on.
 R6Disp:  Grimme-D2 Dispersion energy=       -0.0102427640 Hartrees.
 Nuclear repulsion after empirical dispersion term =      562.4008871779 Hartrees.
 Leave Link  301 at Mon Nov 21 14:52:21 2022, MaxMem= 16106127360 cpu:               1.2 elap:               0.0
 (Enter /opt/ap/G16/B01/g16/l302.exe)
 NPDir=0 NMtPBC=     1 NCelOv=     1 NCel=       1 NClECP=     1 NCelD=      1
         NCelK=      1 NCelE2=     1 NClLst=     1 CellRange=     0.0.
 One-electron integrals computed using PRISM.
 One-electron integral symmetry used in STVInt
 NBasis=   298 RedAO= T EigKep=  1.26D-06  NBF=   298
 NBsUse=   296 1.00D-06 EigRej=  6.22D-07 NBFU=   296
 Precomputing XC quadrature grid using
 IXCGrd= 4 IRadAn=           5 IRanWt=          -1 IRanGd=           0 AccXCQ= 0.00D+00.
 Generated NRdTot=       0 NPtTot=           0 NUsed=           0 NTot=          32
 NSgBfM=   309   309   309   309   309 MxSgAt=    19 MxSgA2=    19.
 Leave Link  302 at Mon Nov 21 14:52:22 2022, MaxMem= 16106127360 cpu:               6.6 elap:               0.2
 (Enter /opt/ap/G16/B01/g16/l303.exe)
 DipDrv:  MaxL=1.
 Leave Link  303 at Mon Nov 21 14:52:22 2022, MaxMem= 16106127360 cpu:               1.5 elap:               0.1
 (Enter /opt/ap/G16/B01/g16/l401.exe)
 ExpMin= 3.60D-02 ExpMax= 8.59D+03 ExpMxC= 1.30D+03 IAcc=3 IRadAn=         5 AccDes= 0.00D+00
 Harris functional with IExCor= 4639 and IRadAn=       5 diagonalized for initial guess.
 HarFok:  IExCor= 4639 AccDes= 0.00D+00 IRadAn=         5 IDoV= 1 UseB2=F ITyADJ=14
 ICtDFT=  3500011 ScaDFX=  1.000000  1.000000  1.000000  1.000000
 FoFCou: FMM=F IPFlag=           0 FMFlag=      100000 FMFlg1=           0
         NFxFlg=           0 DoJE=T BraDBF=F KetDBF=T FulRan=T
         wScrn=  0.000000 ICntrl=       500 IOpCl=  0 I1Cent=   200000004 NGrid=           0
         NMat0=    1 NMatS0=      1 NMatT0=    0 NMatD0=    1 NMtDS0=    0 NMtDT0=    0
 Petite list used in FoFCou.
 Harris En= -440.617023509788    
 JPrj=0 DoOrth=F DoCkMO=F.
 Leave Link  401 at Mon Nov 21 14:52:22 2022, MaxMem= 16106127360 cpu:              16.6 elap:               0.5
 (Enter /opt/ap/G16/B01/g16/l502.exe)
 Integral symmetry usage will be decided dynamically.
 Closed shell SCF:
 Using DIIS extrapolation, IDIIS=  1040.
 NGot= 16106127360 LenX= 16105923535 LenY= 16105827613
 Requested convergence on RMS density matrix=1.00D-08 within 512 cycles.
 Requested convergence on MAX density matrix=1.00D-06.
 Requested convergence on             energy=1.00D-06.
 No special actions if energy rises.
 Fock matrices will be formed incrementally for  20 cycles.

 Cycle   1  Pass 1  IDiag  1:
 FoFJK:  IHMeth= 1 ICntrl=       0 DoSepK=T KAlg= 0 I1Cent=           0 FoldK=F
 IRaf=         1 NMat=       1 IRICut=       1 DoRegI=T DoRafI=F ISym2E= 0 IDoP0=0 IntGTp=1.
 FoFCou: FMM=F IPFlag=           0 FMFlag=      100000 FMFlg1=           0
         NFxFlg=           0 DoJE=T BraDBF=F KetDBF=F FulRan=T
         wScrn=  0.000000 ICntrl=       500 IOpCl=  0 I1Cent=           0 NGrid=           0
         NMat0=    1 NMatS0=      1 NMatT0=    0 NMatD0=    1 NMtDS0=    0 NMtDT0=    0
 Symmetry not used in FoFCou.
 E= -460.751680129428    
 DIIS: error= 4.32D-02 at cycle   1 NSaved=   1.
 NSaved= 1 IEnMin= 1 EnMin= -460.751680129428     IErMin= 1 ErrMin= 4.32D-02
 ErrMax= 4.32D-02  0.00D+00 EMaxC= 1.00D-01 BMatC= 9.57D-01 BMatP= 9.57D-01
 IDIUse=3 WtCom= 5.68D-01 WtEn= 4.32D-01
 Coeff-Com:  0.100D+01
 Coeff-En:   0.100D+01
 Coeff:      0.100D+01
 Gap=     0.344 Goal=   None    Shift=    0.000
 GapD=    0.344 DampG=1.000 DampE=0.500 DampFc=0.5000 IDamp=-1.
 Damping current iteration by 5.00D-01
 RMSDP=4.40D-02 MaxDP=4.07D+00              OVMax= 1.34D-01

 Cycle   2  Pass 1  IDiag  1:
 RMSU=  8.61D-03    CP:  8.22D-01
 E= -460.819738717027     Delta-E=       -0.068058587599 Rises=F Damp=T
 DIIS: error= 2.16D-02 at cycle   2 NSaved=   2.
 NSaved= 2 IEnMin= 2 EnMin= -460.819738717027     IErMin= 2 ErrMin= 2.16D-02
 ErrMax= 2.16D-02  0.00D+00 EMaxC= 1.00D-01 BMatC= 2.08D-01 BMatP= 9.57D-01
 IDIUse=3 WtCom= 7.84D-01 WtEn= 2.16D-01
 Coeff-Com: -0.712D+00 0.171D+01
 Coeff-En:   0.000D+00 0.100D+01
 Coeff:     -0.558D+00 0.156D+01
 Gap=     0.345 Goal=   None    Shift=    0.000
 RMSDP=2.35D-02 MaxDP=2.83D+00 DE=-6.81D-02 OVMax= 1.42D-01

 Cycle   3  Pass 1  IDiag  1:
 RMSU=  1.25D-02    CP:  6.56D-01  1.77D+00
 E= -460.859934552255     Delta-E=       -0.040195835228 Rises=F Damp=F
 DIIS: error= 8.45D-03 at cycle   3 NSaved=   3.
 NSaved= 3 IEnMin= 3 EnMin= -460.859934552255     IErMin= 3 ErrMin= 8.45D-03
 ErrMax= 8.45D-03  0.00D+00 EMaxC= 1.00D-01 BMatC= 3.42D-02 BMatP= 2.08D-01
 IDIUse=3 WtCom= 9.16D-01 WtEn= 8.45D-02
 Coeff-Com: -0.382D+00 0.809D+00 0.572D+00
 Coeff-En:   0.000D+00 0.000D+00 0.100D+01
 Coeff:     -0.349D+00 0.741D+00 0.608D+00
 Gap=     0.317 Goal=   None    Shift=    0.000
 RMSDP=9.22D-03 MaxDP=5.37D-01 DE=-4.02D-02 OVMax= 6.45D-02

 Cycle   4  Pass 1  IDiag  1:
 RMSU=  2.15D-03    CP:  6.11D-01  1.64D+00  4.15D-01
 E= -460.889961225870     Delta-E=       -0.030026673615 Rises=F Damp=F
 DIIS: error= 1.57D-03 at cycle   4 NSaved=   4.
 NSaved= 4 IEnMin= 4 EnMin= -460.889961225870     IErMin= 4 ErrMin= 1.57D-03
 ErrMax= 1.57D-03  0.00D+00 EMaxC= 1.00D-01 BMatC= 9.36D-04 BMatP= 3.42D-02
 IDIUse=3 WtCom= 9.84D-01 WtEn= 1.57D-02
 Coeff-Com: -0.139D+00 0.295D+00 0.279D+00 0.564D+00
 Coeff-En:   0.000D+00 0.000D+00 0.000D+00 0.100D+01
 Coeff:     -0.137D+00 0.290D+00 0.275D+00 0.571D+00
 Gap=     0.308 Goal=   None    Shift=    0.000
 RMSDP=1.31D-03 MaxDP=6.98D-02 DE=-3.00D-02 OVMax= 8.10D-03

 Cycle   5  Pass 1  IDiag  1:
 RMSU=  5.01D-04    CP:  6.15D-01  1.67D+00  4.92D-01  7.71D-01
 E= -460.890811115816     Delta-E=       -0.000849889945 Rises=F Damp=F
 DIIS: error= 2.40D-04 at cycle   5 NSaved=   5.
 NSaved= 5 IEnMin= 5 EnMin= -460.890811115816     IErMin= 5 ErrMin= 2.40D-04
 ErrMax= 2.40D-04  0.00D+00 EMaxC= 1.00D-01 BMatC= 1.69D-05 BMatP= 9.36D-04
 IDIUse=3 WtCom= 9.98D-01 WtEn= 2.40D-03
 Coeff-Com:  0.751D-02-0.158D-01 0.708D-02 0.125D+00 0.876D+00
 Coeff-En:   0.000D+00 0.000D+00 0.000D+00 0.000D+00 0.100D+01
 Coeff:      0.749D-02-0.158D-01 0.707D-02 0.125D+00 0.876D+00
 Gap=     0.309 Goal=   None    Shift=    0.000
 RMSDP=2.56D-04 MaxDP=1.48D-02 DE=-8.50D-04 OVMax= 2.78D-03

 Cycle   6  Pass 1  IDiag  1:
 RMSU=  1.72D-04    CP:  6.14D-01  1.66D+00  4.86D-01  8.12D-01  1.15D+00
 E= -460.890836873415     Delta-E=       -0.000025757600 Rises=F Damp=F
 DIIS: error= 1.76D-04 at cycle   6 NSaved=   6.
 NSaved= 6 IEnMin= 6 EnMin= -460.890836873415     IErMin= 6 ErrMin= 1.76D-04
 ErrMax= 1.76D-04  0.00D+00 EMaxC= 1.00D-01 BMatC= 3.44D-06 BMatP= 1.69D-05
 IDIUse=3 WtCom= 9.98D-01 WtEn= 1.76D-03
 Coeff-Com:  0.167D-01-0.356D-01-0.238D-01-0.129D-01 0.321D+00 0.735D+00
 Coeff-En:   0.000D+00 0.000D+00 0.000D+00 0.000D+00 0.000D+00 0.100D+01
 Coeff:      0.167D-01-0.356D-01-0.238D-01-0.129D-01 0.320D+00 0.735D+00
 Gap=     0.309 Goal=   None    Shift=    0.000
 RMSDP=1.11D-04 MaxDP=7.26D-03 DE=-2.58D-05 OVMax= 1.14D-03

 Cycle   7  Pass 1  IDiag  1:
 RMSU=  4.35D-05    CP:  6.13D-01  1.66D+00  4.83D-01  8.18D-01  1.24D+00
                    CP:  1.09D+00
 E= -460.890842405575     Delta-E=       -0.000005532160 Rises=F Damp=F
 DIIS: error= 4.74D-05 at cycle   7 NSaved=   7.
 NSaved= 7 IEnMin= 7 EnMin= -460.890842405575     IErMin= 7 ErrMin= 4.74D-05
 ErrMax= 4.74D-05  0.00D+00 EMaxC= 1.00D-01 BMatC= 2.80D-07 BMatP= 3.44D-06
 IDIUse=1 WtCom= 1.00D+00 WtEn= 0.00D+00
 Coeff-Com:  0.146D-02-0.307D-02-0.272D-02-0.135D-01-0.602D-01 0.102D+00
 Coeff-Com:  0.976D+00
 Coeff:      0.146D-02-0.307D-02-0.272D-02-0.135D-01-0.602D-01 0.102D+00
 Coeff:      0.976D+00
 Gap=     0.309 Goal=   None    Shift=    0.000
 RMSDP=3.06D-05 MaxDP=3.04D-03 DE=-5.53D-06 OVMax= 6.73D-04

 Cycle   8  Pass 1  IDiag  1:
 RMSU=  2.21D-05    CP:  6.13D-01  1.66D+00  4.83D-01  8.23D-01  1.25D+00
                    CP:  1.19D+00  1.07D+00
 E= -460.890843273480     Delta-E=       -0.000000867905 Rises=F Damp=F
 DIIS: error= 2.85D-05 at cycle   8 NSaved=   8.
 NSaved= 8 IEnMin= 8 EnMin= -460.890843273480     IErMin= 8 ErrMin= 2.85D-05
 ErrMax= 2.85D-05  0.00D+00 EMaxC= 1.00D-01 BMatC= 8.54D-08 BMatP= 2.80D-07
 IDIUse=1 WtCom= 1.00D+00 WtEn= 0.00D+00
 Coeff-Com: -0.197D-02 0.423D-02 0.290D-02-0.287D-02-0.761D-01-0.748D-01
 Coeff-Com:  0.412D+00 0.736D+00
 Coeff:     -0.197D-02 0.423D-02 0.290D-02-0.287D-02-0.761D-01-0.748D-01
 Coeff:      0.412D+00 0.736D+00
 Gap=     0.309 Goal=   None    Shift=    0.000
 RMSDP=1.14D-05 MaxDP=1.06D-03 DE=-8.68D-07 OVMax= 2.06D-04

 Cycle   9  Pass 1  IDiag  1:
 RMSU=  8.03D-06    CP:  6.14D-01  1.66D+00  4.83D-01  8.22D-01  1.25D+00
                    CP:  1.23D+00  1.10D+00  1.05D+00
 E= -460.890843441978     Delta-E=       -0.000000168498 Rises=F Damp=F
 DIIS: error= 9.07D-06 at cycle   9 NSaved=   9.
 NSaved= 9 IEnMin= 9 EnMin= -460.890843441978     IErMin= 9 ErrMin= 9.07D-06
 ErrMax= 9.07D-06  0.00D+00 EMaxC= 1.00D-01 BMatC= 6.78D-09 BMatP= 8.54D-08
 IDIUse=1 WtCom= 1.00D+00 WtEn= 0.00D+00
 Coeff-Com: -0.769D-03 0.164D-02 0.133D-02 0.141D-02-0.133D-01-0.383D-01
 Coeff-Com: -0.286D-01 0.177D+00 0.900D+00
 Coeff:     -0.769D-03 0.164D-02 0.133D-02 0.141D-02-0.133D-01-0.383D-01
 Coeff:     -0.286D-01 0.177D+00 0.900D+00
 Gap=     0.309 Goal=   None    Shift=    0.000
 RMSDP=6.85D-06 MaxDP=4.78D-04 DE=-1.68D-07 OVMax= 1.18D-04

 Cycle  10  Pass 1  IDiag  1:
 RMSU=  3.49D-06    CP:  6.14D-01  1.66D+00  4.83D-01  8.22D-01  1.25D+00
                    CP:  1.22D+00  1.11D+00  1.14D+00  1.13D+00
 E= -460.890843466579     Delta-E=       -0.000000024601 Rises=F Damp=F
 DIIS: error= 5.54D-06 at cycle  10 NSaved=  10.
 NSaved=10 IEnMin=10 EnMin= -460.890843466579     IErMin=10 ErrMin= 5.54D-06
 ErrMax= 5.54D-06  0.00D+00 EMaxC= 1.00D-01 BMatC= 1.08D-09 BMatP= 6.78D-09
 IDIUse=1 WtCom= 1.00D+00 WtEn= 0.00D+00
 Coeff-Com:  0.334D-04-0.769D-04 0.161D-04 0.778D-03 0.575D-02-0.693D-03
 Coeff-Com: -0.519D-01-0.691D-01 0.219D+00 0.896D+00
 Coeff:      0.334D-04-0.769D-04 0.161D-04 0.778D-03 0.575D-02-0.693D-03
 Coeff:     -0.519D-01-0.691D-01 0.219D+00 0.896D+00
 Gap=     0.309 Goal=   None    Shift=    0.000
 RMSDP=2.30D-06 MaxDP=2.35D-04 DE=-2.46D-08 OVMax= 4.29D-05

 Cycle  11  Pass 1  IDiag  1:
 RMSU=  7.70D-07    CP:  6.14D-01  1.66D+00  4.83D-01  8.22D-01  1.25D+00
                    CP:  1.22D+00  1.10D+00  1.18D+00  1.23D+00  1.14D+00
 E= -460.890843470139     Delta-E=       -0.000000003560 Rises=F Damp=F
 DIIS: error= 1.60D-06 at cycle  11 NSaved=  11.
 NSaved=11 IEnMin=11 EnMin= -460.890843470139     IErMin=11 ErrMin= 1.60D-06
 ErrMax= 1.60D-06  0.00D+00 EMaxC= 1.00D-01 BMatC= 2.33D-10 BMatP= 1.08D-09
 IDIUse=1 WtCom= 1.00D+00 WtEn= 0.00D+00
 Coeff-Com:  0.138D-03-0.296D-03-0.211D-03 0.661D-04 0.419D-02 0.550D-02
 Coeff-Com: -0.120D-01-0.579D-01-0.644D-01 0.340D+00 0.785D+00
 Coeff:      0.138D-03-0.296D-03-0.211D-03 0.661D-04 0.419D-02 0.550D-02
 Coeff:     -0.120D-01-0.579D-01-0.644D-01 0.340D+00 0.785D+00
 Gap=     0.309 Goal=   None    Shift=    0.000
 RMSDP=8.32D-07 MaxDP=5.03D-05 DE=-3.56D-09 OVMax= 1.64D-05

 Cycle  12  Pass 1  IDiag  1:
 RMSU=  3.45D-07    CP:  6.14D-01  1.66D+00  4.83D-01  8.22D-01  1.25D+00
                    CP:  1.22D+00  1.09D+00  1.20D+00  1.26D+00  1.22D+00
                    CP:  1.09D+00
 E= -460.890843470737     Delta-E=       -0.000000000598 Rises=F Damp=F
 DIIS: error= 6.44D-07 at cycle  12 NSaved=  12.
 NSaved=12 IEnMin=12 EnMin= -460.890843470737     IErMin=12 ErrMin= 6.44D-07
 ErrMax= 6.44D-07  0.00D+00 EMaxC= 1.00D-01 BMatC= 1.77D-11 BMatP= 2.33D-10
 IDIUse=1 WtCom= 1.00D+00 WtEn= 0.00D+00
 Coeff-Com:  0.746D-05-0.151D-04-0.241D-04-0.122D-03-0.508D-03 0.394D-03
 Coeff-Com:  0.822D-02 0.491D-02-0.436D-01-0.100D+00 0.141D-01 0.112D+01
 Coeff:      0.746D-05-0.151D-04-0.241D-04-0.122D-03-0.508D-03 0.394D-03
 Coeff:      0.822D-02 0.491D-02-0.436D-01-0.100D+00 0.141D-01 0.112D+01
 Gap=     0.309 Goal=   None    Shift=    0.000
 RMSDP=3.83D-07 MaxDP=2.49D-05 DE=-5.98D-10 OVMax= 8.44D-06

 Cycle  13  Pass 1  IDiag  1:
 RMSU=  1.23D-07    CP:  6.14D-01  1.66D+00  4.83D-01  8.22D-01  1.25D+00
                    CP:  1.22D+00  1.09D+00  1.19D+00  1.25D+00  1.26D+00
                    CP:  1.21D+00  1.36D+00
 E= -460.890843470834     Delta-E=       -0.000000000097 Rises=F Damp=F
 DIIS: error= 2.31D-07 at cycle  13 NSaved=  13.
 NSaved=13 IEnMin=13 EnMin= -460.890843470834     IErMin=13 ErrMin= 2.31D-07
 ErrMax= 2.31D-07  0.00D+00 EMaxC= 1.00D-01 BMatC= 4.88D-12 BMatP= 1.77D-11
 IDIUse=1 WtCom= 1.00D+00 WtEn= 0.00D+00
 Coeff-Com: -0.106D-04 0.231D-04 0.117D-04-0.548D-04-0.593D-03-0.417D-03
 Coeff-Com:  0.458D-02 0.801D-02-0.944D-02-0.686D-01-0.819D-01 0.441D+00
 Coeff-Com:  0.707D+00
 Coeff:     -0.106D-04 0.231D-04 0.117D-04-0.548D-04-0.593D-03-0.417D-03
 Coeff:      0.458D-02 0.801D-02-0.944D-02-0.686D-01-0.819D-01 0.441D+00
 Coeff:      0.707D+00
 Gap=     0.309 Goal=   None    Shift=    0.000
 RMSDP=9.69D-08 MaxDP=7.00D-06 DE=-9.71D-11 OVMax= 2.08D-06

 Cycle  14  Pass 1  IDiag  1:
 RMSU=  4.11D-08    CP:  6.14D-01  1.66D+00  4.83D-01  8.22D-01  1.25D+00
                    CP:  1.22D+00  1.09D+00  1.19D+00  1.25D+00  1.26D+00
                    CP:  1.22D+00  1.43D+00  1.17D+00
 E= -460.890843470850     Delta-E=       -0.000000000016 Rises=F Damp=F
 DIIS: error= 9.66D-08 at cycle  14 NSaved=  14.
 NSaved=14 IEnMin=14 EnMin= -460.890843470850     IErMin=14 ErrMin= 9.66D-08
 ErrMax= 9.66D-08  0.00D+00 EMaxC= 1.00D-01 BMatC= 7.06D-13 BMatP= 4.88D-12
 IDIUse=1 WtCom= 1.00D+00 WtEn= 0.00D+00
 Coeff-Com: -0.345D-05 0.734D-05 0.585D-05 0.146D-05-0.538D-04-0.174D-03
 Coeff-Com: -0.457D-03 0.110D-02 0.525D-02 0.209D-02-0.271D-01-0.107D+00
 Coeff-Com:  0.194D+00 0.933D+00
 Coeff:     -0.345D-05 0.734D-05 0.585D-05 0.146D-05-0.538D-04-0.174D-03
 Coeff:     -0.457D-03 0.110D-02 0.525D-02 0.209D-02-0.271D-01-0.107D+00
 Coeff:      0.194D+00 0.933D+00
 Gap=     0.309 Goal=   None    Shift=    0.000
 RMSDP=4.92D-08 MaxDP=2.38D-06 DE=-1.57D-11 OVMax= 1.30D-06

 Cycle  15  Pass 1  IDiag  1:
 RMSU=  1.63D-08    CP:  6.14D-01  1.66D+00  4.83D-01  8.22D-01  1.25D+00
                    CP:  1.22D+00  1.09D+00  1.19D+00  1.25D+00  1.26D+00
                    CP:  1.22D+00  1.45D+00  1.29D+00  1.12D+00
 E= -460.890843470854     Delta-E=       -0.000000000005 Rises=F Damp=F
 DIIS: error= 3.19D-08 at cycle  15 NSaved=  15.
 NSaved=15 IEnMin=15 EnMin= -460.890843470854     IErMin=15 ErrMin= 3.19D-08
 ErrMax= 3.19D-08  0.00D+00 EMaxC= 1.00D-01 BMatC= 1.12D-13 BMatP= 7.06D-13
 IDIUse=1 WtCom= 1.00D+00 WtEn= 0.00D+00
 Coeff-Com: -0.776D-07 0.795D-07 0.785D-06 0.696D-05 0.558D-04-0.467D-05
 Coeff-Com: -0.730D-03-0.613D-03 0.238D-02 0.892D-02 0.323D-02-0.899D-01
 Coeff-Com: -0.482D-01 0.277D+00 0.848D+00
 Coeff:     -0.776D-07 0.795D-07 0.785D-06 0.696D-05 0.558D-04-0.467D-05
 Coeff:     -0.730D-03-0.613D-03 0.238D-02 0.892D-02 0.323D-02-0.899D-01
 Coeff:     -0.482D-01 0.277D+00 0.848D+00
 Gap=     0.309 Goal=   None    Shift=    0.000
 RMSDP=2.30D-08 MaxDP=1.65D-06 DE=-4.55D-12 OVMax= 4.96D-07

 Cycle  16  Pass 1  IDiag  1:
 RMSU=  7.13D-09    CP:  6.14D-01  1.66D+00  4.83D-01  8.22D-01  1.25D+00
                    CP:  1.22D+00  1.10D+00  1.19D+00  1.25D+00  1.26D+00
                    CP:  1.22D+00  1.45D+00  1.35D+00  1.25D+00  1.21D+00
 E= -460.890843470850     Delta-E=        0.000000000004 Rises=F Damp=F
 DIIS: error= 1.40D-08 at cycle  16 NSaved=  16.
 NSaved=16 IEnMin=15 EnMin= -460.890843470854     IErMin=16 ErrMin= 1.40D-08
 ErrMax= 1.40D-08  0.00D+00 EMaxC= 1.00D-01 BMatC= 2.20D-14 BMatP= 1.12D-13
 IDIUse=1 WtCom= 1.00D+00 WtEn= 0.00D+00
 Coeff-Com:  0.636D-06-0.139D-05-0.897D-06 0.195D-05 0.310D-04 0.387D-04
 Coeff-Com: -0.169D-03-0.413D-03-0.136D-03 0.303D-02 0.798D-02-0.118D-01
 Coeff-Com: -0.655D-01-0.828D-01 0.273D+00 0.877D+00
 Coeff:      0.636D-06-0.139D-05-0.897D-06 0.195D-05 0.310D-04 0.387D-04
 Coeff:     -0.169D-03-0.413D-03-0.136D-03 0.303D-02 0.798D-02-0.118D-01
 Coeff:     -0.655D-01-0.828D-01 0.273D+00 0.877D+00
 Gap=     0.309 Goal=   None    Shift=    0.000
 RMSDP=1.00D-08 MaxDP=9.02D-07 DE= 4.32D-12 OVMax= 2.18D-07

 Cycle  17  Pass 1  IDiag  1:
 RMSU=  2.54D-09    CP:  6.14D-01  1.66D+00  4.83D-01  8.22D-01  1.25D+00
                    CP:  1.22D+00  1.10D+00  1.19D+00  1.25D+00  1.26D+00
                    CP:  1.21D+00  1.45D+00  1.36D+00  1.30D+00  1.35D+00
                    CP:  1.18D+00
 E= -460.890843470854     Delta-E=       -0.000000000005 Rises=F Damp=F
 DIIS: error= 5.51D-09 at cycle  17 NSaved=  17.
 NSaved=17 IEnMin=17 EnMin= -460.890843470854     IErMin=17 ErrMin= 5.51D-09
 ErrMax= 5.51D-09  0.00D+00 EMaxC= 1.00D-01 BMatC= 1.44D-15 BMatP= 2.20D-14
 IDIUse=1 WtCom= 1.00D+00 WtEn= 0.00D+00
 Large coefficients: NSaved= 17 BigCof=    0.00 CofMax=   10.00 Det=-7.93D-15
 Inversion failed.  Reducing to 16 matrices.
 Large coefficients: NSaved= 16 BigCof=    0.00 CofMax=   10.00 Det=-8.30D-15
 Inversion failed.  Reducing to 15 matrices.
 Coeff-Com: -0.959D-07-0.632D-06-0.545D-05 0.412D-05 0.707D-04 0.613D-04
 Coeff-Com: -0.313D-03-0.117D-02 0.512D-03 0.112D-01-0.899D-03-0.297D-01
 Coeff-Com: -0.912D-01 0.319D-01 0.108D+01
 Coeff:     -0.959D-07-0.632D-06-0.545D-05 0.412D-05 0.707D-04 0.613D-04
 Coeff:     -0.313D-03-0.117D-02 0.512D-03 0.112D-01-0.899D-03-0.297D-01
 Coeff:     -0.912D-01 0.319D-01 0.108D+01
 Gap=     0.309 Goal=   None    Shift=    0.000
 RMSDP=2.66D-09 MaxDP=1.52D-07 DE=-4.55D-12 OVMax= 6.89D-08

 SCF Done:  E(RwB97XD) =  -460.890843471     A.U. after   17 cycles
            NFock= 17  Conv=0.27D-08     -V/T= 1.9983
 KE= 4.616756153082D+02 PE=-2.199486726615D+03 EE= 7.145193806583D+02
 Leave Link  502 at Mon Nov 21 14:52:46 2022, MaxMem= 16106127360 cpu:             758.5 elap:              23.8
 (Enter /opt/ap/G16/B01/g16/l601.exe)
 Copying SCF densities to generalized density rwf, IOpCl= 0 IROHF=0.

 **********************************************************************

            Population analysis using the SCF Density.

 **********************************************************************

 Orbital symmetries:
       Occupied  (A) (A) (A) (A) (A) (A) (A) (A) (A) (A) (A) (A)
                 (A) (A) (A) (A) (A) (A) (A) (A) (A) (A) (A) (A)
                 (A) (A) (A) (A) (A) (A) (A) (A) (A) (A) (A) (A)
                 (A) (A)
       Virtual   (A) (A) (A) (A) (A) (A) (A) (A) (A) (A) (A) (A)
                 (A) (A) (A) (A) (A) (A) (A) (A) (A) (A) (A) (A)
                 (A) (A) (A) (A) (A) (A) (A) (A) (A) (A) (A) (A)
                 (A) (A) (A) (A) (A) (A) (A) (A) (A) (A) (A) (A)
                 (A) (A) (A) (A) (A) (A) (A) (A) (A) (A) (A) (A)
                 (A) (A) (A) (A) (A) (A) (A) (A) (A) (A) (A) (A)
                 (A) (A) (A) (A) (A) (A) (A) (A) (A) (A) (A) (A)
                 (A) (A) (A) (A) (A) (A) (A) (A) (A) (A) (A) (A)
                 (A) (A) (A) (A) (A) (A) (A) (A) (A) (A) (A) (A)
                 (A) (A) (A) (A) (A) (A) (A) (A) (A) (A) (A) (A)
                 (A) (A) (A) (A) (A) (A) (A) (A) (A) (A) (A) (A)
                 (A) (A) (A) (A) (A) (A) (A) (A) (A) (A) (A) (A)
                 (A) (A) (A) (A) (A) (A) (A) (A) (A) (A) (A) (A)
                 (A) (A) (A) (A) (A) (A) (A) (A) (A) (A) (A) (A)
                 (A) (A) (A) (A) (A) (A) (A) (A) (A) (A) (A) (A)
                 (A) (A) (A) (A) (A) (A) (A) (A) (A) (A) (A) (A)
                 (A) (A) (A) (A) (A) (A) (A) (A) (A) (A) (A) (A)
                 (A) (A) (A) (A) (A) (A) (A) (A) (A) (A) (A) (A)
                 (A) (A) (A) (A) (A) (A) (A) (A) (A) (A) (A) (A)
                 (A) (A) (A) (A) (A) (A) (A) (A) (A) (A) (A) (A)
                 (A) (A) (A) (A) (A) (A) (A) (A) (A) (A) (A) (A)
                 (A) (A) (A) (A) (A) (A)
 The electronic state is 1-A.
 Alpha  occ. eigenvalues --  -19.26342 -10.35013 -10.29586 -10.29370 -10.27098
 Alpha  occ. eigenvalues --  -10.26924 -10.26841 -10.26753 -10.26590 -10.26525
 Alpha  occ. eigenvalues --  -10.26449  -1.19766  -0.98619  -0.94018  -0.88394
 Alpha  occ. eigenvalues --   -0.86115  -0.83900  -0.75317  -0.73755  -0.72174
 Alpha  occ. eigenvalues --   -0.66364  -0.64417  -0.61805  -0.59616  -0.55615
 Alpha  occ. eigenvalues --   -0.54132  -0.52748  -0.52099  -0.51151  -0.48615
 Alpha  occ. eigenvalues --   -0.47415  -0.45152  -0.42940  -0.42567  -0.41326
 Alpha  occ. eigenvalues --   -0.35428  -0.32547  -0.28727
 Alpha virt. eigenvalues --    0.02192   0.03944   0.04557   0.04722   0.05019
 Alpha virt. eigenvalues --    0.06216   0.06546   0.08587   0.08755   0.09050
 Alpha virt. eigenvalues --    0.10512   0.11600   0.12229   0.13145   0.13768
 Alpha virt. eigenvalues --    0.14960   0.15099   0.15756   0.16093   0.16746
 Alpha virt. eigenvalues --    0.16881   0.16989   0.17807   0.18090   0.18317
 Alpha virt. eigenvalues --    0.18503   0.19389   0.19507   0.20068   0.20707
 Alpha virt. eigenvalues --    0.21549   0.21844   0.22439   0.22524   0.22900
 Alpha virt. eigenvalues --    0.24643   0.25768   0.25927   0.26264   0.26989
 Alpha virt. eigenvalues --    0.27553   0.29050   0.29582   0.29997   0.30285
 Alpha virt. eigenvalues --    0.31370   0.31813   0.32300   0.32635   0.33455
 Alpha virt. eigenvalues --    0.33885   0.34698   0.35254   0.35605   0.36109
 Alpha virt. eigenvalues --    0.36616   0.36781   0.37849   0.38728   0.39375
 Alpha virt. eigenvalues --    0.39958   0.41242   0.41804   0.42679   0.43141
 Alpha virt. eigenvalues --    0.44329   0.44811   0.46369   0.47948   0.48894
 Alpha virt. eigenvalues --    0.51117   0.57442   0.58445   0.60160   0.61350
 Alpha virt. eigenvalues --    0.62047   0.62785   0.65486   0.66102   0.66382
 Alpha virt. eigenvalues --    0.67292   0.67530   0.68391   0.68911   0.70161
 Alpha virt. eigenvalues --    0.70507   0.71264   0.71715   0.72242   0.72545
 Alpha virt. eigenvalues --    0.75036   0.75322   0.76649   0.78900   0.80874
 Alpha virt. eigenvalues --    0.82237   0.83426   0.85039   0.87079   0.87662
 Alpha virt. eigenvalues --    0.89386   0.90529   0.91690   0.92653   0.93438
 Alpha virt. eigenvalues --    0.95982   0.96816   0.97367   1.00031   1.00675
 Alpha virt. eigenvalues --    1.01262   1.02456   1.04042   1.05227   1.06033
 Alpha virt. eigenvalues --    1.06819   1.07453   1.10235   1.12085   1.12315
 Alpha virt. eigenvalues --    1.14573   1.15408   1.18452   1.19106   1.20333
 Alpha virt. eigenvalues --    1.21256   1.22763   1.23656   1.24181   1.25472
 Alpha virt. eigenvalues --    1.28022   1.33774   1.34709   1.42865   1.46082
 Alpha virt. eigenvalues --    1.49381   1.56623   1.57758   1.58042   1.59418
 Alpha virt. eigenvalues --    1.61969   1.62408   1.63537   1.64455   1.70476
 Alpha virt. eigenvalues --    1.70703   1.71122   1.71872   1.72283   1.76332
 Alpha virt. eigenvalues --    1.76775   1.77526   1.80410   1.81650   1.87277
 Alpha virt. eigenvalues --    1.89512   1.90562   1.92549   1.93098   1.93630
 Alpha virt. eigenvalues --    1.96271   1.97474   1.98328   2.00280   2.03532
 Alpha virt. eigenvalues --    2.05240   2.05529   2.07880   2.09072   2.09275
 Alpha virt. eigenvalues --    2.09896   2.12408   2.13628   2.16019   2.19778
 Alpha virt. eigenvalues --    2.24687   2.27569   2.28847   2.30294   2.34748
 Alpha virt. eigenvalues --    2.38079   2.39696   2.40870   2.48395   2.51259
 Alpha virt. eigenvalues --    2.52375   2.53934   2.54926   2.55682   2.57980
 Alpha virt. eigenvalues --    2.65619   2.67057   2.72879   2.73190   2.76278
 Alpha virt. eigenvalues --    2.81141   2.81870   2.84813   2.88498   2.89028
 Alpha virt. eigenvalues --    2.93348   2.94182   2.95862   2.99371   3.01446
 Alpha virt. eigenvalues --    3.03155   3.04009   3.04579   3.06866   3.07690
 Alpha virt. eigenvalues --    3.08797   3.11625   3.17085   3.18858   3.19653
 Alpha virt. eigenvalues --    3.22401   3.24424   3.28530   3.32298   3.35977
 Alpha virt. eigenvalues --    3.36744   3.41006   3.48148   3.50088   3.53526
 Alpha virt. eigenvalues --    3.56098   3.62192   3.74049   3.77302   3.80049
 Alpha virt. eigenvalues --    3.84324   3.89755   3.90706   3.99853   4.14626
 Alpha virt. eigenvalues --    4.28576   4.43782   4.44759   4.45943   4.52328
 Alpha virt. eigenvalues --    4.57735   4.62227   4.94593   4.97632   5.18911
 Alpha virt. eigenvalues --    5.64532   6.16591  23.80305  24.06061  24.16011
 Alpha virt. eigenvalues --   24.17692  24.22081  24.26799  24.41087  24.44888
 Alpha virt. eigenvalues --   24.51922  24.53841  50.18292
          Condensed to atoms (all electrons):
               1          2          3          4          5          6
     1  C   26.788247  -2.800498  -5.608206  -5.491402  -2.176606  -0.101038
     2  C   -2.800498  20.709954  -4.649712  -0.274962  -2.289652  -3.761779
     3  C   -5.608206  -4.649712  15.443048   2.454261  -0.230489  -0.769447
     4  C   -5.491402  -0.274962   2.454261  10.612153  -0.133873  -0.925685
     5  C   -2.176606  -2.289652  -0.230489  -0.133873   8.913586   2.214357
     6  C   -0.101038  -3.761779  -0.769447  -0.925685   2.214357  10.282505
     7  C   -6.282710  -0.597019   1.508825  -0.191095   0.187673  -0.893186
     8  O   -0.470750  -0.273282   0.765648  -0.011015  -0.015164   0.136439
     9  C    1.766429  -0.400172  -1.435007  -0.467448  -0.173933   0.612015
    10  H   -0.165652   0.005433   0.087452   0.535587   0.030185  -0.064432
    11  C   -0.281297  -0.125045   0.201182   0.063892   0.240644  -0.840807
    12  H   -0.027722  -0.044414  -0.043579  -0.003622   0.499003   0.066392
    13  C   -0.146549   0.805381  -0.926493   0.342235  -0.881005  -0.478487
    14  H    0.344246   0.161859  -0.437173  -0.027562   0.038177   0.440809
    15  H   -0.062570   0.006447  -0.143100  -0.002479  -0.020603  -0.013212
    16  H    0.077282  -0.021612   0.079845   0.010037   0.001158   0.013497
    17  H    0.130515  -0.004265  -0.005417  -0.139414   0.012805   0.015996
    18  H   -0.033341   0.055248  -0.037184   0.024457  -0.050377  -0.022638
    19  H    0.028556  -0.075220   0.078511  -0.020837  -0.029596  -0.049067
               7          8          9         10         11         12
     1  C   -6.282710  -0.470750   1.766429  -0.165652  -0.281297  -0.027722
     2  C   -0.597019  -0.273282  -0.400172   0.005433  -0.125045  -0.044414
     3  C    1.508825   0.765648  -1.435007   0.087452   0.201182  -0.043579
     4  C   -0.191095  -0.011015  -0.467448   0.535587   0.063892  -0.003622
     5  C    0.187673  -0.015164  -0.173933   0.030185   0.240644   0.499003
     6  C   -0.893186   0.136439   0.612015  -0.064432  -0.840807   0.066392
     7  C   13.180310  -0.107191  -0.468943   0.078818   0.071600   0.003427
     8  O   -0.107191   8.010639   0.008352   0.000304  -0.003316   0.000315
     9  C   -0.468943   0.008352   6.652069  -0.175527  -0.382261   0.045265
    10  H    0.078818   0.000304  -0.175527   0.508449   0.052665  -0.002573
    11  C    0.071600  -0.003316  -0.382261   0.052665   6.341176  -0.123990
    12  H    0.003427   0.000315   0.045265  -0.002573  -0.123990   0.506283
    13  C   -0.649413   0.014345   0.104827  -0.003118   0.573478  -0.003220
    14  H   -0.211809  -0.041197   0.034359  -0.001306   0.023383   0.001497
    15  H    0.622977  -0.017052  -0.032294   0.002100  -0.001171  -0.000329
    16  H   -0.128100   0.265061  -0.002499   0.000240  -0.000696   0.000029
    17  H   -0.174087  -0.000013   0.499640  -0.024071  -0.002389   0.001062
    18  H   -0.012089  -0.000318   0.007838   0.000206   0.460086  -0.018615
    19  H    0.029010   0.003164  -0.006672  -0.000076  -0.053454   0.000326
              13         14         15         16         17         18
     1  C   -0.146549   0.344246  -0.062570   0.077282   0.130515  -0.033341
     2  C    0.805381   0.161859   0.006447  -0.021612  -0.004265   0.055248
     3  C   -0.926493  -0.437173  -0.143100   0.079845  -0.005417  -0.037184
     4  C    0.342235  -0.027562  -0.002479   0.010037  -0.139414   0.024457
     5  C   -0.881005   0.038177  -0.020603   0.001158   0.012805  -0.050377
     6  C   -0.478487   0.440809  -0.013212   0.013497   0.015996  -0.022638
     7  C   -0.649413  -0.211809   0.622977  -0.128100  -0.174087  -0.012089
     8  O    0.014345  -0.041197  -0.017052   0.265061  -0.000013  -0.000318
     9  C    0.104827   0.034359  -0.032294  -0.002499   0.499640   0.007838
    10  H   -0.003118  -0.001306   0.002100   0.000240  -0.024071   0.000206
    11  C    0.573478   0.023383  -0.001171  -0.000696  -0.002389   0.460086
    12  H   -0.003220   0.001497  -0.000329   0.000029   0.001062  -0.018615
    13  C    7.092216  -0.012319   0.003285  -0.008831   0.001026  -0.046286
    14  H   -0.012319   0.529093  -0.001901  -0.001949   0.001710   0.003089
    15  H    0.003285  -0.001901   0.516124  -0.004419  -0.016493  -0.000135
    16  H   -0.008831  -0.001949  -0.004419   0.445173   0.000635  -0.000077
    17  H    0.001026   0.001710  -0.016493   0.000635   0.512655   0.000199
    18  H   -0.046286   0.003089  -0.000135  -0.000077   0.000199   0.505868
    19  H    0.444537  -0.025280   0.000303   0.000040  -0.000227  -0.014554
              19
     1  C    0.028556
     2  C   -0.075220
     3  C    0.078511
     4  C   -0.020837
     5  C   -0.029596
     6  C   -0.049067
     7  C    0.029010
     8  O    0.003164
     9  C   -0.006672
    10  H   -0.000076
    11  C   -0.053454
    12  H    0.000326
    13  C    0.444537
    14  H   -0.025280
    15  H    0.000303
    16  H    0.000040
    17  H   -0.000227
    18  H   -0.014554
    19  H    0.505405
 Mulliken charges:
               1
     1  C    0.513066
     2  C   -0.426689
     3  C   -0.332965
     4  C   -0.353231
     5  C   -0.136290
     6  C    0.137765
     7  C    0.033000
     8  O   -0.264968
     9  C   -0.186037
    10  H    0.135315
    11  C   -0.213682
    12  H    0.144464
    13  C   -0.225610
    14  H    0.182272
    15  H    0.164523
    16  H    0.275184
    17  H    0.190133
    18  H    0.178620
    19  H    0.185130
 Sum of Mulliken charges =  -0.00000
 Mulliken charges with hydrogens summed into heavy atoms:
               1
     1  C    0.513066
     2  C   -0.426689
     3  C   -0.332965
     4  C   -0.217916
     5  C    0.008175
     6  C    0.320037
     7  C    0.197523
     8  O    0.010216
     9  C    0.004096
    11  C   -0.035062
    13  C   -0.040480
 Electronic spatial extent (au):  <R**2>=           1508.6419
 Charge=              0.0000 electrons
 Dipole moment (field-independent basis, Debye):
    X=             -0.6738    Y=             -0.5417    Z=              0.8516  Tot=              1.2135
 Quadrupole moment (field-independent basis, Debye-Ang):
   XX=            -51.0454   YY=            -58.3276   ZZ=            -67.3219
   XY=             -0.8885   XZ=             -2.2221   YZ=              2.2492
 Traceless Quadrupole moment (field-independent basis, Debye-Ang):
   XX=              7.8529   YY=              0.5707   ZZ=             -8.4236
   XY=             -0.8885   XZ=             -2.2221   YZ=              2.2492
 Octapole moment (field-independent basis, Debye-Ang**2):
  XXX=            -14.7964  YYY=             -1.0336  ZZZ=              0.5658  XYY=             -3.3062
  XXY=              9.5722  XXZ=              5.4534  XZZ=             -4.8016  YZZ=              5.9079
  YYZ=              5.7786  XYZ=             -5.9276
 Hexadecapole moment (field-independent basis, Debye-Ang**3):
 XXXX=          -1071.8744 YYYY=           -669.2907 ZZZZ=            -77.3655 XXXY=            -31.4018
 XXXZ=            -13.0195 YYYX=            -13.7916 YYYZ=             14.0284 ZZZX=             -1.8507
 ZZZY=              1.9372 XXYY=           -276.2909 XXZZ=           -236.2531 YYZZ=           -139.2223
 XXYZ=             13.8179 YYXZ=            -13.8968 ZZXY=            -10.7327
 N-N= 5.624008871779D+02 E-N=-2.199486726502D+03  KE= 4.616756153082D+02
 No NMR shielding tensors so no spin-rotation constants.
 Leave Link  601 at Mon Nov 21 14:52:46 2022, MaxMem= 16106127360 cpu:               3.7 elap:               0.1
 (Enter /opt/ap/G16/B01/g16/l9999.exe)
 1\1\GINC-N09\SP\RwB97XD\6-311++G(d,p)\C10H8O1\ROOT\21-Nov-2022\0\\#P w
 B97XD/6-311++G(d,p) scf=maxcycle=512\\_conf008.gjf nmol_natom 1_19\\0,
 1\C\C,1,1.40879539\C,1,1.42289824,2,117.24956717\C,2,1.41887971,1,119.
 07594714,3,0.16510261,0\C,2,1.42227783,1,117.46262303,3,-179.44443577,
 0\C,1,1.42440336,2,119.00293897,4,179.73740031,0\C,3,1.35510367,1,122.
 33979448,2,-0.36120568,0\O,3,1.37615658,1,115.04370777,2,-179.5931286,
 0\C,4,1.34577659,2,121.30210156,1,0.17277764,0\H,4,0.93023405,2,119.33
 469462,1,-179.75965297,0\C,5,1.34486794,2,122.06073707,1,-0.32265162,0
 \H,5,0.92957893,2,118.96449269,1,179.64671542,0\C,6,1.35980576,1,121.1
 112438,2,0.11625163,0\H,6,0.92999796,1,119.43671105,2,-179.87270235,0\
 H,7,0.93052813,3,120.28038366,1,-179.76477098,0\H,8,0.81991994,3,109.4
 8785721,1,-140.,0\H,9,0.93027331,4,119.71917791,2,179.60144151,0\H,11,
 0.92987565,5,119.70372857,2,-179.69197286,0\H,13,0.93032717,6,120.1452
 4692,1,179.85241379,0\\Version=ES64L-G16RevB.01\State=1-A\HF=-460.8908
 435\RMSD=2.664e-09\Dipole=0.3094248,-0.3330093,0.1459601\Quadrupole=5.
 2255213,-6.23655,1.0110287,-1.1848201,-1.84206,2.0731922\PG=C01 [X(C10
 H8O1)]\\@


 THE RARE EARTHS PERPLEX US IN OUR RESEARCHES,
 BAFFLE US IN OUR SPECULATIONS, AND HAUNT US IN OUR
 VERY DREAMS.  THEY STRETCH LIKE AN UNKNOWN BEFORE US,
 MOCKING, MYSTIFYING, AND MURMURING STRANGE REVELATIONS
 AND POSSIBILITIES.  -- SIR WILLIAM CROOKE, 1832-1919
 Job cpu time:       0 days  0 hours 13 minutes 18.0 seconds.
 Elapsed time:       0 days  0 hours  0 minutes 25.1 seconds.
 File lengths (MBytes):  RWF=     51 Int=      0 D2E=      0 Chk=      6 Scr=      1
 Normal termination of Gaussian 16 at Mon Nov 21 14:52:46 2022.
