 Entering Gaussian System, Link 0=g16
 Input=_conf003.gjf
 Output=_conf003.log
 Initial command:
 /opt/ap/G16/B01/g16/l1.exe "/tmp2/scr/Gau-22107.inp" -scrdir="/tmp2/scr/"
 Entering Link 1 = /opt/ap/G16/B01/g16/l1.exe PID=     22108.
  
 Copyright (c) 1988-2017, Gaussian, Inc.  All Rights Reserved.
  
 This is part of the Gaussian(R) 16 program.  It is based on
 the Gaussian(R) 09 system (copyright 2009, Gaussian, Inc.),
 the Gaussian(R) 03 system (copyright 2003, Gaussian, Inc.),
 the Gaussian(R) 98 system (copyright 1998, Gaussian, Inc.),
 the Gaussian(R) 94 system (copyright 1995, Gaussian, Inc.),
 the Gaussian 92(TM) system (copyright 1992, Gaussian, Inc.),
 the Gaussian 90(TM) system (copyright 1990, Gaussian, Inc.),
 the Gaussian 88(TM) system (copyright 1988, Gaussian, Inc.),
 the Gaussian 86(TM) system (copyright 1986, Carnegie Mellon
 University), and the Gaussian 82(TM) system (copyright 1983,
 Carnegie Mellon University). Gaussian is a federally registered
 trademark of Gaussian, Inc.
  
 This software contains proprietary and confidential information,
 including trade secrets, belonging to Gaussian, Inc.
  
 This software is provided under written license and may be
 used, copied, transmitted, or stored only in accord with that
 written license.
  
 The following legend is applicable only to US Government
 contracts under FAR:
  
                    RESTRICTED RIGHTS LEGEND
  
 Use, reproduction and disclosure by the US Government is
 subject to restrictions as set forth in subparagraphs (a)
 and (c) of the Commercial Computer Software - Restricted
 Rights clause in FAR 52.227-19.
  
 Gaussian, Inc.
 340 Quinnipiac St., Bldg. 40, Wallingford CT 06492
  
  
 ---------------------------------------------------------------
 Warning -- This program may not be used in any manner that
 competes with the business of Gaussian, Inc. or will provide
 assistance to any competitor of Gaussian, Inc.  The licensee
 of this program is prohibited from giving any competitor of
 Gaussian, Inc. access to this program.  By using this program,
 the user acknowledges that Gaussian, Inc. is engaged in the
 business of creating and licensing software in the field of
 computational chemistry and represents and warrants to the
 licensee that it is not a competitor of Gaussian, Inc. and that
 it will not use this program in any manner prohibited above.
 ---------------------------------------------------------------
  

 Cite this work as:
 Gaussian 16, Revision B.01,
 M. J. Frisch, G. W. Trucks, H. B. Schlegel, G. E. Scuseria, 
 M. A. Robb, J. R. Cheeseman, G. Scalmani, V. Barone, 
 G. A. Petersson, H. Nakatsuji, X. Li, M. Caricato, A. V. Marenich, 
 J. Bloino, B. G. Janesko, R. Gomperts, B. Mennucci, H. P. Hratchian, 
 J. V. Ortiz, A. F. Izmaylov, J. L. Sonnenberg, D. Williams-Young, 
 F. Ding, F. Lipparini, F. Egidi, J. Goings, B. Peng, A. Petrone, 
 T. Henderson, D. Ranasinghe, V. G. Zakrzewski, J. Gao, N. Rega, 
 G. Zheng, W. Liang, M. Hada, M. Ehara, K. Toyota, R. Fukuda, 
 J. Hasegawa, M. Ishida, T. Nakajima, Y. Honda, O. Kitao, H. Nakai, 
 T. Vreven, K. Throssell, J. A. Montgomery, Jr., J. E. Peralta, 
 F. Ogliaro, M. J. Bearpark, J. J. Heyd, E. N. Brothers, K. N. Kudin, 
 V. N. Staroverov, T. A. Keith, R. Kobayashi, J. Normand, 
 K. Raghavachari, A. P. Rendell, J. C. Burant, S. S. Iyengar, 
 J. Tomasi, M. Cossi, J. M. Millam, M. Klene, C. Adamo, R. Cammi, 
 J. W. Ochterski, R. L. Martin, K. Morokuma, O. Farkas, 
 J. B. Foresman, and D. J. Fox, Gaussian, Inc., Wallingford CT, 2016.
 
 ******************************************
 Gaussian 16:  ES64L-G16RevB.01 20-Dec-2017
                21-Nov-2022 
 ******************************************
 %nprocshared=32
 Will use up to   32 processors via shared memory.
 %mem=120GB
 %chk=_conf003.chk
 ----------------------------------------
 #P wB97XD/6-311++G(d,p) scf=maxcycle=512
 ----------------------------------------
 1/38=1,172=1/1;
 2/12=2,17=6,18=5,40=1/2;
 3/5=4,6=6,7=1111,11=2,25=1,30=1,74=-58/1,2,3;
 4//1;
 5/5=2,7=512,38=5/2;
 6/7=2,8=2,9=2,10=2,28=1/1;
 99/5=1,9=1/99;
 Leave Link    1 at Mon Nov 21 14:51:28 2022, MaxMem= 16106127360 cpu:               2.3 elap:               0.1
 (Enter /opt/ap/G16/B01/g16/l101.exe)
 ----------------------------
 _conf003.gjf nmol_natom 1_19
 ----------------------------
 Symbolic Z-matrix:
 Charge =  0 Multiplicity = 1
 C
 C                    1     1.4088 
 C                    1     1.4229   2     117.24957 
 C                    2     1.41888  1     119.07595  3     0.1651   0
 C                    2     1.42228  1     117.46262  3    -179.44444  0
 C                    1     1.4244   2     119.00294  4     179.7374  0
 C                    3     1.3551   1     122.33979  2    -0.36121  0
 O                    3     1.37616  1     115.04371  2    -179.59313  0
 C                    4     1.34578  2     121.3021  1     0.17278  0
 H                    4     0.93023  2     119.33469  1    -179.75965  0
 C                    5     1.34487  2     122.06074  1    -0.32265  0
 H                    5     0.92958  2     118.96449  1     179.64672  0
 C                    6     1.35981  1     121.11124  2     0.11625  0
 H                    6     0.93     1     119.43671  2    -179.8727  0
 H                    7     0.93053  3     120.28038  1    -179.76477  0
 H                    8     0.81992  3     109.48786  1    -165.     0
 H                    9     0.93027  4     119.71918  2     179.60144  0
 H                    11    0.92988  5     119.70373  2    -179.69197  0
 H                    13    0.93033  6     120.14525  1     179.85241  0
 
 ITRead=  0  0  0  0  0  0  0  0  0  0  0  0  0  0  0  0  0  0  0
 MicOpt= -1 -1 -1 -1 -1 -1 -1 -1 -1 -1 -1 -1 -1 -1 -1 -1 -1 -1 -1
 NAtoms=     19 NQM=       19 NQMF=       0 NMMI=      0 NMMIF=      0
                NMic=       0 NMicF=      0.
                    Isotopes and Nuclear Properties:
 (Nuclear quadrupole moments (NQMom) in fm**2, nuclear magnetic moments (NMagM)
  in nuclear magnetons)

  Atom         1           2           3           4           5           6           7           8           9          10
 IAtWgt=          12          12          12          12          12          12          12          16          12           1
 AtmWgt=  12.0000000  12.0000000  12.0000000  12.0000000  12.0000000  12.0000000  12.0000000  15.9949146  12.0000000   1.0078250
 NucSpn=           0           0           0           0           0           0           0           0           0           1
 AtZEff=  -0.0000000  -0.0000000  -0.0000000  -0.0000000  -0.0000000  -0.0000000  -0.0000000  -0.0000000  -0.0000000  -0.0000000
 NQMom=    0.0000000   0.0000000   0.0000000   0.0000000   0.0000000   0.0000000   0.0000000   0.0000000   0.0000000   0.0000000
 NMagM=    0.0000000   0.0000000   0.0000000   0.0000000   0.0000000   0.0000000   0.0000000   0.0000000   0.0000000   2.7928460
 AtZNuc=   6.0000000   6.0000000   6.0000000   6.0000000   6.0000000   6.0000000   6.0000000   8.0000000   6.0000000   1.0000000

  Atom        11          12          13          14          15          16          17          18          19
 IAtWgt=          12           1          12           1           1           1           1           1           1
 AtmWgt=  12.0000000   1.0078250  12.0000000   1.0078250   1.0078250   1.0078250   1.0078250   1.0078250   1.0078250
 NucSpn=           0           1           0           1           1           1           1           1           1
 AtZEff=  -0.0000000  -0.0000000  -0.0000000  -0.0000000  -0.0000000  -0.0000000  -0.0000000  -0.0000000  -0.0000000
 NQMom=    0.0000000   0.0000000   0.0000000   0.0000000   0.0000000   0.0000000   0.0000000   0.0000000   0.0000000
 NMagM=    0.0000000   2.7928460   0.0000000   2.7928460   2.7928460   2.7928460   2.7928460   2.7928460   2.7928460
 AtZNuc=   6.0000000   1.0000000   6.0000000   1.0000000   1.0000000   1.0000000   1.0000000   1.0000000   1.0000000
 Leave Link  101 at Mon Nov 21 14:51:28 2022, MaxMem= 16106127360 cpu:               6.4 elap:               0.2
 (Enter /opt/ap/G16/B01/g16/l202.exe)
                          Input orientation:                          
 ---------------------------------------------------------------------
 Center     Atomic      Atomic             Coordinates (Angstroms)
 Number     Number       Type             X           Y           Z
 ---------------------------------------------------------------------
      1          6           0        0.000000    0.000000    0.000000
      2          6           0        0.000000    0.000000    1.408795
      3          6           0        1.264986    0.000000   -0.651498
      4          6           0        1.240062    0.003573    2.098326
      5          6           0       -1.261945   -0.012237    2.064707
      6          6           0       -1.245741   -0.009299   -0.690628
      7          6           0        2.433644    0.007218    0.034427
      8          8           0        1.212032    0.008854   -2.026607
      9          6           0        2.409936    0.010412    1.433147
     10          1           0        1.244276    0.000184    3.028545
     11          6           0       -2.421000   -0.017057    1.382624
     12          1           0       -1.286266   -0.017488    2.993953
     13          6           0       -2.424704   -0.015738   -0.013076
     14          1           0       -1.252769   -0.011151   -1.620598
     15          1           0        3.245045    0.010306   -0.421097
     16          1           0        1.946910   -0.191680   -2.329937
     17          1           0        3.210137    0.018260    1.907515
     18          1           0       -3.227740   -0.020753    1.845035
     19          1           0       -3.230632   -0.019714   -0.477804
 ---------------------------------------------------------------------
                    Distance matrix (angstroms):
                    1          2          3          4          5
     1  C    0.000000
     2  C    1.408795   0.000000
     3  C    1.422898   2.417643   0.000000
     4  C    2.437363   1.418880   2.749940   0.000000
     5  C    2.419849   1.422278   3.709892   2.502283   0.000000
     6  C    1.424403   2.441216   2.511049   3.735994   2.755385
     7  C    2.433898   2.794917   1.355104   2.384184   4.216609
     8  O    2.361406   3.642951   1.376157   4.125032   4.781198
     9  C    2.803892   2.410081   2.378396   1.345777   3.725867
    10  H    3.274188   2.042501   3.680101   0.930234   2.685197
    11  C    2.788042   2.421201   4.210040   3.730420   1.344868
    12  H    3.258610   2.041448   4.449551   2.680471   0.929579
    13  C    2.424790   2.810899   3.744548   4.229527   2.381009
    14  H    2.048388   3.278228   2.697845   4.477144   3.685317
    15  H    3.272269   3.725443   1.993445   3.219859   5.147104
    16  H    3.042336   4.219635   1.821790   4.488572   5.444433
    17  H    3.734157   3.248697   3.214420   1.979348   4.474947
    18  H    3.717915   3.257153   5.139815   4.475043   1.978050
    19  H    3.265834   3.741207   4.499015   5.159854   3.215610
                    6          7          8          9         10
     6  C    0.000000
     7  C    3.750180   0.000000
     8  O    2.797466   2.395871   0.000000
     9  C    4.227858   1.398925   3.661267   0.000000
    10  H    4.475771   3.221706   5.055262   1.975895   0.000000
    11  C    2.383205   5.038431   4.982213   4.831278   4.017910
    12  H    3.684813   4.753644   5.607870   4.012331   2.530840
    13  C    1.359806   4.858634   4.157013   5.046383   4.765829
    14  H    0.929998   4.040926   2.498097   4.768777   5.277300
    15  H    4.498910   0.930528   2.590522   2.033624   3.987882
    16  H    3.593552   2.422124   0.819920   3.796846   5.407757
    17  H    5.158096   2.027689   4.412463   0.930273   2.263105
    18  H    3.218391   5.943934   5.890846   5.652788   4.626021
    19  H    1.996295   5.687453   4.704984   5.955556   5.685040
                   11         12         13         14         15
    11  C    0.000000
    12  H    1.970788   0.000000
    13  C    1.395705   3.215317   0.000000
    14  H    3.222443   4.614677   1.989366   0.000000
    15  H    5.946277   5.674162   5.684470   4.655061   0.000000
    16  H    5.735175   6.231178   4.950738   3.282332   2.317245
    17  H    5.655657   4.625934   5.953256   5.689110   2.328887
    18  H    0.929876   2.255958   2.024221   3.988887   6.858080
    19  H    2.028966   3.979153   0.930327   2.284293   6.475995
                   16         17         18         19
    16  H    0.000000
    17  H    4.426716   0.000000
    18  H    6.651062   6.438299   0.000000
    19  H    5.501538   6.868384   2.322841   0.000000
 Stoichiometry    C10H8O
 Framework group  C1[X(C10H8O)]
 Deg. of freedom    51
 Full point group                 C1      NOp   1
 Largest Abelian subgroup         C1      NOp   1
 Largest concise Abelian subgroup C1      NOp   1
                         Standard orientation:                         
 ---------------------------------------------------------------------
 Center     Atomic      Atomic             Coordinates (Angstroms)
 Number     Number       Type             X           Y           Z
 ---------------------------------------------------------------------
      1          6           0        0.032431    0.430066   -0.006439
      2          6           0        0.373963   -0.936698   -0.002554
      3          6           0       -1.352754    0.755474   -0.002891
      4          6           0       -0.661949   -1.906282    0.001013
      5          6           0        1.757309   -1.267080    0.006159
      6          6           0        1.073607    1.402112   -0.004308
      7          6           0       -2.320279   -0.193315   -0.003279
      8          8           0       -1.634776    2.102361   -0.015760
      9          6           0       -1.958200   -1.544570   -0.002716
     10          1           0       -0.440514   -2.809756    0.006986
     11          6           0        2.716442   -0.324355    0.004202
     12          1           0        2.006199   -2.162687    0.013870
     13          6           0        2.381673    1.030598   -0.000982
     14          1           0        0.854980    2.306047   -0.005050
     15          1           0       -3.217913    0.051910   -0.004195
     16          1           0       -2.420576    2.219237    0.187039
     17          1           0       -2.619552   -2.198796   -0.005876
     18          1           0        3.611226   -0.577389    0.005764
     19          1           0        3.050905    1.676845   -0.001693
 ---------------------------------------------------------------------
 Rotational constants (GHZ):           2.0143972           1.1470041           0.7309389
 Leave Link  202 at Mon Nov 21 14:51:28 2022, MaxMem= 16106127360 cpu:               0.4 elap:               0.0
 (Enter /opt/ap/G16/B01/g16/l301.exe)
 Standard basis: 6-311++G(d,p) (5D, 7F)
 Ernie: Thresh=  0.10000D-02 Tol=  0.10000D-05 Strict=F.
 There are   309 symmetry adapted cartesian basis functions of A   symmetry.
 There are   298 symmetry adapted basis functions of A   symmetry.
   298 basis functions,   468 primitive gaussians,   309 cartesian basis functions
    38 alpha electrons       38 beta electrons
       nuclear repulsion energy       562.3679638473 Hartrees.
 IExCor= 4639 DFT=T Ex+Corr=wB97XD ExCW=0 ScaHFX=  1.000000
 ScaDFX=  1.000000  1.000000  1.000000  1.000000 ScalE2=  1.000000  1.000000
 IRadAn=      5 IRanWt=     -1 IRanGd=            0 ICorTp=0 IEmpDi=121
 HFx  wShort=  0.000000 wLong=  0.200000 cFull=  0.222036 cShort=  0.000000 cLong=  0.777964
 DFx  wShort=  0.000000 wLong=  0.200000 cFull=  0.000000 cShort=  0.000000 cLong=  1.000000
 NAtoms=   19 NActive=   19 NUniq=   19 SFac= 1.00D+00 NAtFMM=   60 NAOKFM=F Big=F
 Integral buffers will be    131072 words long.
 Raffenetti 2 integral format.
 Two-electron integral symmetry is turned on.
 R6Disp:  Grimme-D2 Dispersion energy=       -0.0102014333 Hartrees.
 Nuclear repulsion after empirical dispersion term =      562.3577624141 Hartrees.
 Leave Link  301 at Mon Nov 21 14:51:28 2022, MaxMem= 16106127360 cpu:               1.5 elap:               0.1
 (Enter /opt/ap/G16/B01/g16/l302.exe)
 NPDir=0 NMtPBC=     1 NCelOv=     1 NCel=       1 NClECP=     1 NCelD=      1
         NCelK=      1 NCelE2=     1 NClLst=     1 CellRange=     0.0.
 One-electron integrals computed using PRISM.
 One-electron integral symmetry used in STVInt
 NBasis=   298 RedAO= T EigKep=  1.14D-06  NBF=   298
 NBsUse=   296 1.00D-06 EigRej=  5.94D-07 NBFU=   296
 Precomputing XC quadrature grid using
 IXCGrd= 4 IRadAn=           5 IRanWt=          -1 IRanGd=           0 AccXCQ= 0.00D+00.
 Generated NRdTot=       0 NPtTot=           0 NUsed=           0 NTot=          32
 NSgBfM=   309   309   309   309   309 MxSgAt=    19 MxSgA2=    19.
 Leave Link  302 at Mon Nov 21 14:51:29 2022, MaxMem= 16106127360 cpu:              42.8 elap:               1.4
 (Enter /opt/ap/G16/B01/g16/l303.exe)
 DipDrv:  MaxL=1.
 Leave Link  303 at Mon Nov 21 14:51:30 2022, MaxMem= 16106127360 cpu:               1.4 elap:               0.1
 (Enter /opt/ap/G16/B01/g16/l401.exe)
 ExpMin= 3.60D-02 ExpMax= 8.59D+03 ExpMxC= 1.30D+03 IAcc=3 IRadAn=         5 AccDes= 0.00D+00
 Harris functional with IExCor= 4639 and IRadAn=       5 diagonalized for initial guess.
 HarFok:  IExCor= 4639 AccDes= 0.00D+00 IRadAn=         5 IDoV= 1 UseB2=F ITyADJ=14
 ICtDFT=  3500011 ScaDFX=  1.000000  1.000000  1.000000  1.000000
 FoFCou: FMM=F IPFlag=           0 FMFlag=      100000 FMFlg1=           0
         NFxFlg=           0 DoJE=T BraDBF=F KetDBF=T FulRan=T
         wScrn=  0.000000 ICntrl=       500 IOpCl=  0 I1Cent=   200000004 NGrid=           0
         NMat0=    1 NMatS0=      1 NMatT0=    0 NMatD0=    1 NMtDS0=    0 NMtDT0=    0
 Petite list used in FoFCou.
 Harris En= -440.620304150653    
 JPrj=0 DoOrth=F DoCkMO=F.
 Leave Link  401 at Mon Nov 21 14:51:31 2022, MaxMem= 16106127360 cpu:              40.5 elap:               1.3
 (Enter /opt/ap/G16/B01/g16/l502.exe)
 Integral symmetry usage will be decided dynamically.
 Closed shell SCF:
 Using DIIS extrapolation, IDIIS=  1040.
 NGot= 16106127360 LenX= 16105923535 LenY= 16105827613
 Requested convergence on RMS density matrix=1.00D-08 within 512 cycles.
 Requested convergence on MAX density matrix=1.00D-06.
 Requested convergence on             energy=1.00D-06.
 No special actions if energy rises.
 Fock matrices will be formed incrementally for  20 cycles.

 Cycle   1  Pass 1  IDiag  1:
 FoFJK:  IHMeth= 1 ICntrl=       0 DoSepK=T KAlg= 0 I1Cent=           0 FoldK=F
 IRaf=         1 NMat=       1 IRICut=       1 DoRegI=T DoRafI=F ISym2E= 0 IDoP0=0 IntGTp=1.
 FoFCou: FMM=F IPFlag=           0 FMFlag=      100000 FMFlg1=           0
         NFxFlg=           0 DoJE=T BraDBF=F KetDBF=F FulRan=T
         wScrn=  0.000000 ICntrl=       500 IOpCl=  0 I1Cent=           0 NGrid=           0
         NMat0=    1 NMatS0=      1 NMatT0=    0 NMatD0=    1 NMtDS0=    0 NMtDT0=    0
 Symmetry not used in FoFCou.
 E= -460.749104361336    
 DIIS: error= 4.49D-02 at cycle   1 NSaved=   1.
 NSaved= 1 IEnMin= 1 EnMin= -460.749104361336     IErMin= 1 ErrMin= 4.49D-02
 ErrMax= 4.49D-02  0.00D+00 EMaxC= 1.00D-01 BMatC= 9.62D-01 BMatP= 9.62D-01
 IDIUse=3 WtCom= 5.51D-01 WtEn= 4.49D-01
 Coeff-Com:  0.100D+01
 Coeff-En:   0.100D+01
 Coeff:      0.100D+01
 Gap=     0.346 Goal=   None    Shift=    0.000
 GapD=    0.346 DampG=1.000 DampE=0.500 DampFc=0.5000 IDamp=-1.
 Damping current iteration by 5.00D-01
 RMSDP=3.88D-02 MaxDP=3.71D+00              OVMax= 1.43D-01

 Cycle   2  Pass 1  IDiag  1:
 RMSU=  8.57D-03    CP:  8.40D-01
 E= -460.819041206107     Delta-E=       -0.069936844771 Rises=F Damp=T
 DIIS: error= 2.13D-02 at cycle   2 NSaved=   2.
 NSaved= 2 IEnMin= 2 EnMin= -460.819041206107     IErMin= 2 ErrMin= 2.13D-02
 ErrMax= 2.13D-02  0.00D+00 EMaxC= 1.00D-01 BMatC= 2.08D-01 BMatP= 9.62D-01
 IDIUse=3 WtCom= 7.87D-01 WtEn= 2.13D-01
 Coeff-Com: -0.696D+00 0.170D+01
 Coeff-En:   0.000D+00 0.100D+01
 Coeff:     -0.548D+00 0.155D+01
 Gap=     0.346 Goal=   None    Shift=    0.000
 RMSDP=2.12D-02 MaxDP=1.98D+00 DE=-6.99D-02 OVMax= 1.52D-01

 Cycle   3  Pass 1  IDiag  1:
 RMSU=  1.24D-02    CP:  6.94D-01  1.77D+00
 E= -460.859351300533     Delta-E=       -0.040310094426 Rises=F Damp=F
 DIIS: error= 1.09D-02 at cycle   3 NSaved=   3.
 NSaved= 3 IEnMin= 3 EnMin= -460.859351300533     IErMin= 3 ErrMin= 1.09D-02
 ErrMax= 1.09D-02  0.00D+00 EMaxC= 1.00D-01 BMatC= 3.75D-02 BMatP= 2.08D-01
 IDIUse=3 WtCom= 8.91D-01 WtEn= 1.09D-01
 Coeff-Com: -0.380D+00 0.808D+00 0.573D+00
 Coeff-En:   0.000D+00 0.000D+00 0.100D+01
 Coeff:     -0.339D+00 0.719D+00 0.620D+00
 Gap=     0.317 Goal=   None    Shift=    0.000
 RMSDP=1.19D-02 MaxDP=8.56D-01 DE=-4.03D-02 OVMax= 7.00D-02

 Cycle   4  Pass 1  IDiag  1:
 RMSU=  3.34D-03    CP:  6.35D-01  1.55D+00  2.56D-01
 E= -460.891482244958     Delta-E=       -0.032130944426 Rises=F Damp=F
 DIIS: error= 1.97D-03 at cycle   4 NSaved=   4.
 NSaved= 4 IEnMin= 4 EnMin= -460.891482244958     IErMin= 4 ErrMin= 1.97D-03
 ErrMax= 1.97D-03  0.00D+00 EMaxC= 1.00D-01 BMatC= 1.36D-03 BMatP= 3.75D-02
 IDIUse=3 WtCom= 9.80D-01 WtEn= 1.97D-02
 Coeff-Com: -0.138D+00 0.293D+00 0.293D+00 0.552D+00
 Coeff-En:   0.000D+00 0.000D+00 0.000D+00 0.100D+01
 Coeff:     -0.135D+00 0.287D+00 0.287D+00 0.560D+00
 Gap=     0.307 Goal=   None    Shift=    0.000
 RMSDP=1.79D-03 MaxDP=1.14D-01 DE=-3.21D-02 OVMax= 9.90D-03

 Cycle   5  Pass 1  IDiag  1:
 RMSU=  4.25D-04    CP:  6.42D-01  1.59D+00  3.69D-01  8.14D-01
 E= -460.892675090003     Delta-E=       -0.001192845044 Rises=F Damp=F
 DIIS: error= 3.12D-04 at cycle   5 NSaved=   5.
 NSaved= 5 IEnMin= 5 EnMin= -460.892675090003     IErMin= 5 ErrMin= 3.12D-04
 ErrMax= 3.12D-04  0.00D+00 EMaxC= 1.00D-01 BMatC= 1.77D-05 BMatP= 1.36D-03
 IDIUse=3 WtCom= 9.97D-01 WtEn= 3.12D-03
 Coeff-Com:  0.962D-02-0.203D-01 0.498D-02 0.115D+00 0.891D+00
 Coeff-En:   0.000D+00 0.000D+00 0.000D+00 0.000D+00 0.100D+01
 Coeff:      0.959D-02-0.203D-01 0.496D-02 0.115D+00 0.891D+00
 Gap=     0.308 Goal=   None    Shift=    0.000
 RMSDP=3.39D-04 MaxDP=2.08D-02 DE=-1.19D-03 OVMax= 3.02D-03

 Cycle   6  Pass 1  IDiag  1:
 RMSU=  1.75D-04    CP:  6.41D-01  1.57D+00  3.54D-01  8.54D-01  1.04D+00
 E= -460.892703985172     Delta-E=       -0.000028895169 Rises=F Damp=F
 DIIS: error= 2.18D-04 at cycle   6 NSaved=   6.
 NSaved= 6 IEnMin= 6 EnMin= -460.892703985172     IErMin= 6 ErrMin= 2.18D-04
 ErrMax= 2.18D-04  0.00D+00 EMaxC= 1.00D-01 BMatC= 3.69D-06 BMatP= 1.77D-05
 IDIUse=3 WtCom= 9.98D-01 WtEn= 2.18D-03
 Coeff-Com:  0.169D-01-0.361D-01-0.254D-01-0.161D-01 0.319D+00 0.741D+00
 Coeff-En:   0.000D+00 0.000D+00 0.000D+00 0.000D+00 0.000D+00 0.100D+01
 Coeff:      0.169D-01-0.360D-01-0.253D-01-0.161D-01 0.319D+00 0.742D+00
 Gap=     0.308 Goal=   None    Shift=    0.000
 RMSDP=1.07D-04 MaxDP=6.65D-03 DE=-2.89D-05 OVMax= 1.22D-03

 Cycle   7  Pass 1  IDiag  1:
 RMSU=  4.96D-05    CP:  6.40D-01  1.57D+00  3.52D-01  8.58D-01  1.12D+00
                    CP:  1.08D+00
 E= -460.892710061480     Delta-E=       -0.000006076309 Rises=F Damp=F
 DIIS: error= 6.22D-05 at cycle   7 NSaved=   7.
 NSaved= 7 IEnMin= 7 EnMin= -460.892710061480     IErMin= 7 ErrMin= 6.22D-05
 ErrMax= 6.22D-05  0.00D+00 EMaxC= 1.00D-01 BMatC= 3.05D-07 BMatP= 3.69D-06
 IDIUse=1 WtCom= 1.00D+00 WtEn= 0.00D+00
 Coeff-Com:  0.130D-02-0.273D-02-0.275D-02-0.129D-01-0.631D-01 0.106D+00
 Coeff-Com:  0.974D+00
 Coeff:      0.130D-02-0.273D-02-0.275D-02-0.129D-01-0.631D-01 0.106D+00
 Coeff:      0.974D+00
 Gap=     0.308 Goal=   None    Shift=    0.000
 RMSDP=3.67D-05 MaxDP=2.08D-03 DE=-6.08D-06 OVMax= 7.28D-04

 Cycle   8  Pass 1  IDiag  1:
 RMSU=  1.93D-05    CP:  6.40D-01  1.57D+00  3.50D-01  8.61D-01  1.13D+00
                    CP:  1.19D+00  1.15D+00
 E= -460.892710998238     Delta-E=       -0.000000936758 Rises=F Damp=F
 DIIS: error= 2.59D-05 at cycle   8 NSaved=   8.
 NSaved= 8 IEnMin= 8 EnMin= -460.892710998238     IErMin= 8 ErrMin= 2.59D-05
 ErrMax= 2.59D-05  0.00D+00 EMaxC= 1.00D-01 BMatC= 9.12D-08 BMatP= 3.05D-07
 IDIUse=1 WtCom= 1.00D+00 WtEn= 0.00D+00
 Coeff-Com: -0.195D-02 0.419D-02 0.299D-02-0.219D-02-0.750D-01-0.674D-01
 Coeff-Com:  0.411D+00 0.728D+00
 Coeff:     -0.195D-02 0.419D-02 0.299D-02-0.219D-02-0.750D-01-0.674D-01
 Coeff:      0.411D+00 0.728D+00
 Gap=     0.308 Goal=   None    Shift=    0.000
 RMSDP=1.15D-05 MaxDP=1.25D-03 DE=-9.37D-07 OVMax= 2.12D-04

 Cycle   9  Pass 1  IDiag  1:
 RMSU=  6.79D-06    CP:  6.40D-01  1.57D+00  3.50D-01  8.60D-01  1.14D+00
                    CP:  1.23D+00  1.22D+00  9.45D-01
 E= -460.892711173544     Delta-E=       -0.000000175305 Rises=F Damp=F
 DIIS: error= 1.10D-05 at cycle   9 NSaved=   9.
 NSaved= 9 IEnMin= 9 EnMin= -460.892711173544     IErMin= 9 ErrMin= 1.10D-05
 ErrMax= 1.10D-05  0.00D+00 EMaxC= 1.00D-01 BMatC= 7.66D-09 BMatP= 9.12D-08
 IDIUse=1 WtCom= 1.00D+00 WtEn= 0.00D+00
 Coeff-Com: -0.739D-03 0.158D-02 0.138D-02 0.149D-02-0.134D-01-0.372D-01
 Coeff-Com: -0.249D-01 0.183D+00 0.888D+00
 Coeff:     -0.739D-03 0.158D-02 0.138D-02 0.149D-02-0.134D-01-0.372D-01
 Coeff:     -0.249D-01 0.183D+00 0.888D+00
 Gap=     0.308 Goal=   None    Shift=    0.000
 RMSDP=6.52D-06 MaxDP=4.61D-04 DE=-1.75D-07 OVMax= 1.25D-04

 Cycle  10  Pass 1  IDiag  1:
 RMSU=  3.22D-06    CP:  6.40D-01  1.57D+00  3.51D-01  8.59D-01  1.14D+00
                    CP:  1.23D+00  1.25D+00  9.80D-01  1.12D+00
 E= -460.892711200104     Delta-E=       -0.000000026561 Rises=F Damp=F
 DIIS: error= 5.84D-06 at cycle  10 NSaved=  10.
 NSaved=10 IEnMin=10 EnMin= -460.892711200104     IErMin=10 ErrMin= 5.84D-06
 ErrMax= 5.84D-06  0.00D+00 EMaxC= 1.00D-01 BMatC= 1.27D-09 BMatP= 7.66D-09
 IDIUse=1 WtCom= 1.00D+00 WtEn= 0.00D+00
 Coeff-Com:  0.430D-04-0.974D-04 0.196D-04 0.740D-03 0.573D-02-0.128D-02
 Coeff-Com: -0.531D-01-0.710D-01 0.226D+00 0.893D+00
 Coeff:      0.430D-04-0.974D-04 0.196D-04 0.740D-03 0.573D-02-0.128D-02
 Coeff:     -0.531D-01-0.710D-01 0.226D+00 0.893D+00
 Gap=     0.308 Goal=   None    Shift=    0.000
 RMSDP=1.63D-06 MaxDP=1.28D-04 DE=-2.66D-08 OVMax= 4.56D-05

 Cycle  11  Pass 1  IDiag  1:
 RMSU=  8.49D-07    CP:  6.40D-01  1.57D+00  3.51D-01  8.59D-01  1.14D+00
                    CP:  1.24D+00  1.25D+00  1.00D+00  1.20D+00  1.16D+00
 E= -460.892711204177     Delta-E=       -0.000000004073 Rises=F Damp=F
 DIIS: error= 1.86D-06 at cycle  11 NSaved=  11.
 NSaved=11 IEnMin=11 EnMin= -460.892711204177     IErMin=11 ErrMin= 1.86D-06
 ErrMax= 1.86D-06  0.00D+00 EMaxC= 1.00D-01 BMatC= 2.56D-10 BMatP= 1.27D-09
 IDIUse=1 WtCom= 1.00D+00 WtEn= 0.00D+00
 Coeff-Com:  0.138D-03-0.297D-03-0.218D-03 0.421D-04 0.422D-02 0.524D-02
 Coeff-Com: -0.124D-01-0.610D-01-0.619D-01 0.333D+00 0.793D+00
 Coeff:      0.138D-03-0.297D-03-0.218D-03 0.421D-04 0.422D-02 0.524D-02
 Coeff:     -0.124D-01-0.610D-01-0.619D-01 0.333D+00 0.793D+00
 Gap=     0.308 Goal=   None    Shift=    0.000
 RMSDP=4.74D-07 MaxDP=1.81D-05 DE=-4.07D-09 OVMax= 1.69D-05

 Cycle  12  Pass 1  IDiag  1:
 RMSU=  3.13D-07    CP:  6.40D-01  1.57D+00  3.51D-01  8.59D-01  1.14D+00
                    CP:  1.23D+00  1.24D+00  1.01D+00  1.23D+00  1.22D+00
                    CP:  1.11D+00
 E= -460.892711204842     Delta-E=       -0.000000000665 Rises=F Damp=F
 DIIS: error= 7.93D-07 at cycle  12 NSaved=  12.
 NSaved=12 IEnMin=12 EnMin= -460.892711204842     IErMin=12 ErrMin= 7.93D-07
 ErrMax= 7.93D-07  0.00D+00 EMaxC= 1.00D-01 BMatC= 1.85D-11 BMatP= 2.56D-10
 IDIUse=1 WtCom= 1.00D+00 WtEn= 0.00D+00
 Coeff-Com:  0.498D-05-0.979D-05-0.233D-04-0.115D-03-0.526D-03 0.412D-03
 Coeff-Com:  0.868D-02 0.489D-02-0.429D-01-0.101D+00 0.468D-02 0.113D+01
 Coeff:      0.498D-05-0.979D-05-0.233D-04-0.115D-03-0.526D-03 0.412D-03
 Coeff:      0.868D-02 0.489D-02-0.429D-01-0.101D+00 0.468D-02 0.113D+01
 Gap=     0.308 Goal=   None    Shift=    0.000
 RMSDP=2.85D-07 MaxDP=1.76D-05 DE=-6.65D-10 OVMax= 8.44D-06

 Cycle  13  Pass 1  IDiag  1:
 RMSU=  1.32D-07    CP:  6.40D-01  1.57D+00  3.51D-01  8.60D-01  1.14D+00
                    CP:  1.24D+00  1.24D+00  1.00D+00  1.22D+00  1.26D+00
                    CP:  1.24D+00  1.30D+00
 E= -460.892711204941     Delta-E=       -0.000000000099 Rises=F Damp=F
 DIIS: error= 2.67D-07 at cycle  13 NSaved=  13.
 NSaved=13 IEnMin=13 EnMin= -460.892711204941     IErMin=13 ErrMin= 2.67D-07
 ErrMax= 2.67D-07  0.00D+00 EMaxC= 1.00D-01 BMatC= 4.28D-12 BMatP= 1.85D-11
 IDIUse=1 WtCom= 1.00D+00 WtEn= 0.00D+00
 Coeff-Com: -0.101D-04 0.219D-04 0.106D-04-0.465D-04-0.531D-03-0.335D-03
 Coeff-Com:  0.430D-02 0.725D-02-0.909D-02-0.598D-01-0.759D-01 0.405D+00
 Coeff-Com:  0.729D+00
 Coeff:     -0.101D-04 0.219D-04 0.106D-04-0.465D-04-0.531D-03-0.335D-03
 Coeff:      0.430D-02 0.725D-02-0.909D-02-0.598D-01-0.759D-01 0.405D+00
 Coeff:      0.729D+00
 Gap=     0.308 Goal=   None    Shift=    0.000
 RMSDP=7.64D-08 MaxDP=4.97D-06 DE=-9.90D-11 OVMax= 2.02D-06

 Cycle  14  Pass 1  IDiag  1:
 RMSU=  3.97D-08    CP:  6.40D-01  1.57D+00  3.51D-01  8.60D-01  1.14D+00
                    CP:  1.24D+00  1.24D+00  1.00D+00  1.22D+00  1.26D+00
                    CP:  1.25D+00  1.37D+00  1.20D+00
 E= -460.892711204942     Delta-E=       -0.000000000001 Rises=F Damp=F
 DIIS: error= 1.08D-07 at cycle  14 NSaved=  14.
 NSaved=14 IEnMin=14 EnMin= -460.892711204942     IErMin=14 ErrMin= 1.08D-07
 ErrMax= 1.08D-07  0.00D+00 EMaxC= 1.00D-01 BMatC= 7.55D-13 BMatP= 4.28D-12
 IDIUse=1 WtCom= 1.00D+00 WtEn= 0.00D+00
 Coeff-Com: -0.270D-05 0.573D-05 0.487D-05 0.119D-05-0.331D-04-0.157D-03
 Coeff-Com: -0.589D-03 0.957D-03 0.502D-02 0.456D-02-0.248D-01-0.115D+00
 Coeff-Com:  0.215D+00 0.915D+00
 Coeff:     -0.270D-05 0.573D-05 0.487D-05 0.119D-05-0.331D-04-0.157D-03
 Coeff:     -0.589D-03 0.957D-03 0.502D-02 0.456D-02-0.248D-01-0.115D+00
 Coeff:      0.215D+00 0.915D+00
 Gap=     0.308 Goal=   None    Shift=    0.000
 RMSDP=4.71D-08 MaxDP=2.02D-06 DE=-7.96D-13 OVMax= 1.27D-06

 Cycle  15  Pass 1  IDiag  1:
 RMSU=  1.88D-08    CP:  6.40D-01  1.57D+00  3.51D-01  8.60D-01  1.14D+00
                    CP:  1.24D+00  1.24D+00  1.00D+00  1.22D+00  1.26D+00
                    CP:  1.25D+00  1.40D+00  1.32D+00  1.11D+00
 E= -460.892711204955     Delta-E=       -0.000000000013 Rises=F Damp=F
 DIIS: error= 3.46D-08 at cycle  15 NSaved=  15.
 NSaved=15 IEnMin=15 EnMin= -460.892711204955     IErMin=15 ErrMin= 3.46D-08
 ErrMax= 3.46D-08  0.00D+00 EMaxC= 1.00D-01 BMatC= 1.23D-13 BMatP= 7.55D-13
 IDIUse=1 WtCom= 1.00D+00 WtEn= 0.00D+00
 Coeff-Com: -0.114D-06 0.156D-06 0.973D-06 0.628D-05 0.537D-04-0.176D-04
 Coeff-Com: -0.742D-03-0.538D-03 0.239D-02 0.884D-02 0.242D-02-0.926D-01
 Coeff-Com: -0.410D-01 0.295D+00 0.826D+00
 Coeff:     -0.114D-06 0.156D-06 0.973D-06 0.628D-05 0.537D-04-0.176D-04
 Coeff:     -0.742D-03-0.538D-03 0.239D-02 0.884D-02 0.242D-02-0.926D-01
 Coeff:     -0.410D-01 0.295D+00 0.826D+00
 Gap=     0.308 Goal=   None    Shift=    0.000
 RMSDP=2.61D-08 MaxDP=1.54D-06 DE=-1.27D-11 OVMax= 5.13D-07

 Cycle  16  Pass 1  IDiag  1:
 RMSU=  6.60D-09    CP:  6.40D-01  1.57D+00  3.51D-01  8.59D-01  1.14D+00
                    CP:  1.24D+00  1.24D+00  1.00D+00  1.22D+00  1.26D+00
                    CP:  1.24D+00  1.39D+00  1.36D+00  1.23D+00  1.23D+00
 E= -460.892711204954     Delta-E=        0.000000000001 Rises=F Damp=F
 DIIS: error= 1.50D-08 at cycle  16 NSaved=  16.
 NSaved=16 IEnMin=15 EnMin= -460.892711204955     IErMin=16 ErrMin= 1.50D-08
 ErrMax= 1.50D-08  0.00D+00 EMaxC= 1.00D-01 BMatC= 2.38D-14 BMatP= 1.23D-13
 IDIUse=1 WtCom= 1.00D+00 WtEn= 0.00D+00
 Coeff-Com:  0.602D-06-0.132D-05-0.845D-06 0.181D-05 0.297D-04 0.342D-04
 Coeff-Com: -0.163D-03-0.407D-03-0.996D-04 0.282D-02 0.773D-02-0.117D-01
 Coeff-Com: -0.712D-01-0.777D-01 0.270D+00 0.881D+00
 Coeff:      0.602D-06-0.132D-05-0.845D-06 0.181D-05 0.297D-04 0.342D-04
 Coeff:     -0.163D-03-0.407D-03-0.996D-04 0.282D-02 0.773D-02-0.117D-01
 Coeff:     -0.712D-01-0.777D-01 0.270D+00 0.881D+00
 Gap=     0.308 Goal=   None    Shift=    0.000
 RMSDP=1.67D-08 MaxDP=8.65D-07 DE= 9.09D-13 OVMax= 2.34D-07

 Cycle  17  Pass 1  IDiag  1:
 RMSU=  3.17D-09    CP:  6.40D-01  1.57D+00  3.51D-01  8.59D-01  1.14D+00
                    CP:  1.24D+00  1.24D+00  1.00D+00  1.22D+00  1.26D+00
                    CP:  1.24D+00  1.39D+00  1.37D+00  1.29D+00  1.37D+00
                    CP:  1.24D+00
 E= -460.892711204954     Delta-E=       -0.000000000001 Rises=F Damp=F
 DIIS: error= 6.14D-09 at cycle  17 NSaved=  17.
 NSaved=17 IEnMin=15 EnMin= -460.892711204955     IErMin=17 ErrMin= 6.14D-09
 ErrMax= 6.14D-09  0.00D+00 EMaxC= 1.00D-01 BMatC= 1.59D-15 BMatP= 2.38D-14
 IDIUse=1 WtCom= 1.00D+00 WtEn= 0.00D+00
 Large coefficients: NSaved= 17 BigCof=    0.00 CofMax=   10.00 Det=-8.48D-15
 Inversion failed.  Reducing to 16 matrices.
 Large coefficients: NSaved= 16 BigCof=    0.00 CofMax=   10.00 Det=-8.84D-15
 Inversion failed.  Reducing to 15 matrices.
 Coeff-Com: -0.102D-06-0.563D-06-0.536D-05 0.550D-05 0.735D-04 0.555D-04
 Coeff-Com: -0.316D-03-0.117D-02 0.485D-03 0.113D-01-0.131D-02-0.282D-01
 Coeff-Com: -0.951D-01 0.297D-01 0.108D+01
 Coeff:     -0.102D-06-0.563D-06-0.536D-05 0.550D-05 0.735D-04 0.555D-04
 Coeff:     -0.316D-03-0.117D-02 0.485D-03 0.113D-01-0.131D-02-0.282D-01
 Coeff:     -0.951D-01 0.297D-01 0.108D+01
 Gap=     0.308 Goal=   None    Shift=    0.000
 RMSDP=3.54D-09 MaxDP=2.57D-07 DE=-5.68D-13 OVMax= 7.22D-08

 SCF Done:  E(RwB97XD) =  -460.892711205     A.U. after   17 cycles
            NFock= 17  Conv=0.35D-08     -V/T= 1.9983
 KE= 4.616641206806D+02 PE=-2.199367245142D+03 EE= 7.144526508420D+02
 Leave Link  502 at Mon Nov 21 14:51:55 2022, MaxMem= 16106127360 cpu:             758.5 elap:              23.8
 (Enter /opt/ap/G16/B01/g16/l601.exe)
 Copying SCF densities to generalized density rwf, IOpCl= 0 IROHF=0.

 **********************************************************************

            Population analysis using the SCF Density.

 **********************************************************************

 Orbital symmetries:
       Occupied  (A) (A) (A) (A) (A) (A) (A) (A) (A) (A) (A) (A)
                 (A) (A) (A) (A) (A) (A) (A) (A) (A) (A) (A) (A)
                 (A) (A) (A) (A) (A) (A) (A) (A) (A) (A) (A) (A)
                 (A) (A)
       Virtual   (A) (A) (A) (A) (A) (A) (A) (A) (A) (A) (A) (A)
                 (A) (A) (A) (A) (A) (A) (A) (A) (A) (A) (A) (A)
                 (A) (A) (A) (A) (A) (A) (A) (A) (A) (A) (A) (A)
                 (A) (A) (A) (A) (A) (A) (A) (A) (A) (A) (A) (A)
                 (A) (A) (A) (A) (A) (A) (A) (A) (A) (A) (A) (A)
                 (A) (A) (A) (A) (A) (A) (A) (A) (A) (A) (A) (A)
                 (A) (A) (A) (A) (A) (A) (A) (A) (A) (A) (A) (A)
                 (A) (A) (A) (A) (A) (A) (A) (A) (A) (A) (A) (A)
                 (A) (A) (A) (A) (A) (A) (A) (A) (A) (A) (A) (A)
                 (A) (A) (A) (A) (A) (A) (A) (A) (A) (A) (A) (A)
                 (A) (A) (A) (A) (A) (A) (A) (A) (A) (A) (A) (A)
                 (A) (A) (A) (A) (A) (A) (A) (A) (A) (A) (A) (A)
                 (A) (A) (A) (A) (A) (A) (A) (A) (A) (A) (A) (A)
                 (A) (A) (A) (A) (A) (A) (A) (A) (A) (A) (A) (A)
                 (A) (A) (A) (A) (A) (A) (A) (A) (A) (A) (A) (A)
                 (A) (A) (A) (A) (A) (A) (A) (A) (A) (A) (A) (A)
                 (A) (A) (A) (A) (A) (A) (A) (A) (A) (A) (A) (A)
                 (A) (A) (A) (A) (A) (A) (A) (A) (A) (A) (A) (A)
                 (A) (A) (A) (A) (A) (A) (A) (A) (A) (A) (A) (A)
                 (A) (A) (A) (A) (A) (A) (A) (A) (A) (A) (A) (A)
                 (A) (A) (A) (A) (A) (A) (A) (A) (A) (A) (A) (A)
                 (A) (A) (A) (A) (A) (A)
 The electronic state is 1-A.
 Alpha  occ. eigenvalues --  -19.26837 -10.35261 -10.29563 -10.29367 -10.27082
 Alpha  occ. eigenvalues --  -10.26918 -10.26799 -10.26703 -10.26542 -10.26485
 Alpha  occ. eigenvalues --  -10.26264  -1.20140  -0.98602  -0.93985  -0.88422
 Alpha  occ. eigenvalues --   -0.86115  -0.83866  -0.75515  -0.73851  -0.72106
 Alpha  occ. eigenvalues --   -0.66382  -0.64382  -0.61869  -0.59469  -0.55712
 Alpha  occ. eigenvalues --   -0.53923  -0.52721  -0.51740  -0.51156  -0.48909
 Alpha  occ. eigenvalues --   -0.47256  -0.45947  -0.43147  -0.42775  -0.41557
 Alpha  occ. eigenvalues --   -0.35178  -0.32528  -0.28463
 Alpha virt. eigenvalues --    0.02337   0.03916   0.04607   0.04679   0.05042
 Alpha virt. eigenvalues --    0.06200   0.06581   0.08711   0.08724   0.09214
 Alpha virt. eigenvalues --    0.10693   0.11522   0.12305   0.13162   0.13871
 Alpha virt. eigenvalues --    0.14904   0.15114   0.15775   0.15902   0.16733
 Alpha virt. eigenvalues --    0.16777   0.17028   0.17994   0.18077   0.18386
 Alpha virt. eigenvalues --    0.18815   0.19305   0.19504   0.20053   0.20800
 Alpha virt. eigenvalues --    0.21358   0.21970   0.22421   0.22462   0.22870
 Alpha virt. eigenvalues --    0.24738   0.25851   0.25926   0.26202   0.27132
 Alpha virt. eigenvalues --    0.27341   0.29168   0.29885   0.30147   0.30348
 Alpha virt. eigenvalues --    0.31338   0.31636   0.32176   0.32926   0.33788
 Alpha virt. eigenvalues --    0.34604   0.34778   0.35394   0.35671   0.36076
 Alpha virt. eigenvalues --    0.36629   0.37663   0.38200   0.39443   0.39522
 Alpha virt. eigenvalues --    0.40369   0.41383   0.42185   0.42630   0.43306
 Alpha virt. eigenvalues --    0.44423   0.45096   0.46228   0.47808   0.49810
 Alpha virt. eigenvalues --    0.51218   0.57682   0.58461   0.60144   0.61212
 Alpha virt. eigenvalues --    0.62062   0.62740   0.65637   0.66007   0.66460
 Alpha virt. eigenvalues --    0.67323   0.67505   0.68452   0.68859   0.70237
 Alpha virt. eigenvalues --    0.70738   0.71275   0.71984   0.72233   0.72519
 Alpha virt. eigenvalues --    0.75126   0.75404   0.77321   0.78818   0.81255
 Alpha virt. eigenvalues --    0.82385   0.82934   0.85545   0.86975   0.87598
 Alpha virt. eigenvalues --    0.89421   0.91138   0.92233   0.92770   0.93461
 Alpha virt. eigenvalues --    0.96216   0.96914   0.97650   1.00094   1.00944
 Alpha virt. eigenvalues --    1.01547   1.02512   1.03942   1.05432   1.06456
 Alpha virt. eigenvalues --    1.06811   1.07366   1.10244   1.12227   1.13807
 Alpha virt. eigenvalues --    1.14684   1.15901   1.18800   1.19004   1.20122
 Alpha virt. eigenvalues --    1.20737   1.22534   1.23523   1.24232   1.25032
 Alpha virt. eigenvalues --    1.29371   1.32561   1.37329   1.44086   1.46096
 Alpha virt. eigenvalues --    1.49310   1.55014   1.57208   1.58185   1.59220
 Alpha virt. eigenvalues --    1.62150   1.62466   1.62895   1.63649   1.70257
 Alpha virt. eigenvalues --    1.70587   1.71098   1.71188   1.72464   1.76432
 Alpha virt. eigenvalues --    1.77303   1.79023   1.79995   1.81684   1.89263
 Alpha virt. eigenvalues --    1.90572   1.92220   1.92607   1.93355   1.94382
 Alpha virt. eigenvalues --    1.96450   1.97699   1.98191   2.00568   2.03239
 Alpha virt. eigenvalues --    2.04880   2.05310   2.07916   2.09097   2.09518
 Alpha virt. eigenvalues --    2.10260   2.12785   2.13917   2.15705   2.20511
 Alpha virt. eigenvalues --    2.24665   2.27734   2.28638   2.30388   2.35083
 Alpha virt. eigenvalues --    2.38387   2.39586   2.41528   2.50162   2.51589
 Alpha virt. eigenvalues --    2.52368   2.53957   2.55485   2.56381   2.58374
 Alpha virt. eigenvalues --    2.64914   2.68303   2.73134   2.75102   2.75970
 Alpha virt. eigenvalues --    2.80677   2.82300   2.85352   2.87684   2.88942
 Alpha virt. eigenvalues --    2.93814   2.94129   2.95115   2.99893   3.01259
 Alpha virt. eigenvalues --    3.02496   3.03409   3.04792   3.07119   3.07838
 Alpha virt. eigenvalues --    3.08942   3.12188   3.17582   3.18887   3.20063
 Alpha virt. eigenvalues --    3.22070   3.24185   3.26425   3.28704   3.35386
 Alpha virt. eigenvalues --    3.36685   3.39431   3.48342   3.50214   3.53637
 Alpha virt. eigenvalues --    3.56021   3.65229   3.74181   3.77571   3.80494
 Alpha virt. eigenvalues --    3.84323   3.89741   3.90748   4.00307   4.17342
 Alpha virt. eigenvalues --    4.30481   4.43831   4.44819   4.46514   4.52451
 Alpha virt. eigenvalues --    4.57805   4.62831   4.94970   4.97759   5.13287
 Alpha virt. eigenvalues --    5.66763   6.17665  23.80408  24.05827  24.16046
 Alpha virt. eigenvalues --   24.17706  24.22104  24.26906  24.41047  24.44929
 Alpha virt. eigenvalues --   24.52006  24.53893  50.17669
          Condensed to atoms (all electrons):
               1          2          3          4          5          6
     1  C   25.247209  -2.930810  -4.592659  -6.737022  -1.406824   0.312152
     2  C   -2.930810  21.837213  -4.751507  -0.320230  -3.183534  -4.489176
     3  C   -4.592659  -4.751507  13.918147   2.842482  -0.252377  -0.734203
     4  C   -6.737022  -0.320230   2.842482  12.105894  -0.368176  -1.357560
     5  C   -1.406824  -3.183534  -0.252377  -0.368176   9.300116   2.632312
     6  C    0.312152  -4.489176  -0.734203  -1.357560   2.632312  11.349131
     7  C   -4.977843  -0.657710   1.404353   0.255007   0.143958  -0.772831
     8  O   -0.430002  -0.185911   0.515593   0.018285  -0.031462   0.131522
     9  C    2.091439  -0.227501  -1.482843  -1.159971  -0.174951   0.713356
    10  H   -0.170597  -0.007734   0.081289   0.586818   0.012398  -0.068437
    11  C   -0.256733   0.019294   0.031465   0.168287   0.179298  -1.014810
    12  H   -0.005266  -0.080024  -0.042965  -0.022484   0.522728   0.087223
    13  C   -0.974962   1.395376  -0.625259   0.490639  -1.189415  -1.331197
    14  H    0.311471   0.113693  -0.324397  -0.050756   0.041035   0.471263
    15  H   -0.014199   0.008165  -0.160772  -0.014244  -0.020986  -0.005387
    16  H    0.031690  -0.047143   0.186923   0.007003   0.003995   0.001247
    17  H    0.102245   0.011184  -0.012086  -0.147651   0.020495   0.012129
    18  H   -0.030559   0.054518  -0.035066   0.020669  -0.060482  -0.021223
    19  H    0.020203  -0.064647   0.074090  -0.014775  -0.031001  -0.057467
               7          8          9         10         11         12
     1  C   -4.977843  -0.430002   2.091439  -0.170597  -0.256733  -0.005266
     2  C   -0.657710  -0.185911  -0.227501  -0.007734   0.019294  -0.080024
     3  C    1.404353   0.515593  -1.482843   0.081289   0.031465  -0.042965
     4  C    0.255007   0.018285  -1.159971   0.586818   0.168287  -0.022484
     5  C    0.143958  -0.031462  -0.174951   0.012398   0.179298   0.522728
     6  C   -0.772831   0.131522   0.713356  -0.068437  -1.014810   0.087223
     7  C   11.529389  -0.125965  -0.558469   0.071489   0.013790   0.000761
     8  O   -0.125965   8.072072   0.033522   0.000474  -0.000363   0.000011
     9  C   -0.558469   0.033522   6.866763  -0.176296  -0.352263   0.049657
    10  H    0.071489   0.000474  -0.176296   0.510035   0.046561  -0.003759
    11  C    0.013790  -0.000363  -0.352263   0.046561   6.334491  -0.125399
    12  H    0.000761   0.000011   0.049657  -0.003759  -0.125399   0.507940
    13  C   -0.421489   0.083631   0.077969   0.004747   0.740651  -0.015895
    14  H   -0.151962  -0.037415   0.031808  -0.000893   0.022895   0.002010
    15  H    0.569198  -0.019374  -0.006285   0.001341  -0.001993  -0.000314
    16  H   -0.106532   0.221815  -0.013988   0.000289  -0.001831   0.000056
    17  H   -0.137022  -0.000227   0.488073  -0.023681   0.000125   0.001271
    18  H   -0.011520  -0.000181   0.007678   0.000317   0.467202  -0.018944
    19  H    0.026131   0.002912  -0.006301  -0.000090  -0.059506   0.000092
              13         14         15         16         17         18
     1  C   -0.974962   0.311471  -0.014199   0.031690   0.102245  -0.030559
     2  C    1.395376   0.113693   0.008165  -0.047143   0.011184   0.054518
     3  C   -0.625259  -0.324397  -0.160772   0.186923  -0.012086  -0.035066
     4  C    0.490639  -0.050756  -0.014244   0.007003  -0.147651   0.020669
     5  C   -1.189415   0.041035  -0.020986   0.003995   0.020495  -0.060482
     6  C   -1.331197   0.471263  -0.005387   0.001247   0.012129  -0.021223
     7  C   -0.421489  -0.151962   0.569198  -0.106532  -0.137022  -0.011520
     8  O    0.083631  -0.037415  -0.019374   0.221815  -0.000227  -0.000181
     9  C    0.077969   0.031808  -0.006285  -0.013988   0.488073   0.007678
    10  H    0.004747  -0.000893   0.001341   0.000289  -0.023681   0.000317
    11  C    0.740651   0.022895  -0.001993  -0.001831   0.000125   0.467202
    12  H   -0.015895   0.002010  -0.000314   0.000056   0.001271  -0.018944
    13  C    7.732381  -0.096929   0.007013  -0.023914  -0.002550  -0.044146
    14  H   -0.096929   0.510218  -0.001214  -0.001286   0.001225   0.002765
    15  H    0.007013  -0.001214   0.530262  -0.003216  -0.014751  -0.000113
    16  H   -0.023914  -0.001286  -0.003216   0.464838   0.000617  -0.000110
    17  H   -0.002550   0.001225  -0.014751   0.000617   0.511073   0.000166
    18  H   -0.044146   0.002765  -0.000113  -0.000110   0.000166   0.504984
    19  H    0.458244  -0.024883   0.000271   0.000034  -0.000197  -0.014870
              19
     1  C    0.020203
     2  C   -0.064647
     3  C    0.074090
     4  C   -0.014775
     5  C   -0.031001
     6  C   -0.057467
     7  C    0.026131
     8  O    0.002912
     9  C   -0.006301
    10  H   -0.000090
    11  C   -0.059506
    12  H    0.000092
    13  C    0.458244
    14  H   -0.024883
    15  H    0.000271
    16  H    0.000034
    17  H   -0.000197
    18  H   -0.014870
    19  H    0.507554
 Mulliken charges:
               1
     1  C    0.411068
     2  C   -0.493514
     3  C   -0.040208
     4  C   -0.302216
     5  C   -0.137128
     6  C    0.141956
     7  C   -0.092734
     8  O   -0.248938
     9  C   -0.201398
    10  H    0.135728
    11  C   -0.211165
    12  H    0.143299
    13  C   -0.264894
    14  H    0.181351
    15  H    0.146597
    16  H    0.279513
    17  H    0.189562
    18  H    0.178914
    19  H    0.184206
 Sum of Mulliken charges =  -0.00000
 Mulliken charges with hydrogens summed into heavy atoms:
               1
     1  C    0.411068
     2  C   -0.493514
     3  C   -0.040208
     4  C   -0.166488
     5  C    0.006171
     6  C    0.323308
     7  C    0.053863
     8  O    0.030575
     9  C   -0.011836
    11  C   -0.032251
    13  C   -0.080688
 Electronic spatial extent (au):  <R**2>=           1509.4411
 Charge=             -0.0000 electrons
 Dipole moment (field-independent basis, Debye):
    X=             -0.9373    Y=             -0.4724    Z=              0.3486  Tot=              1.1060
 Quadrupole moment (field-independent basis, Debye-Ang):
   XX=            -49.6453   YY=            -58.5191   ZZ=            -67.8581
   XY=             -1.6106   XZ=             -0.9657   YZ=              0.8951
 Traceless Quadrupole moment (field-independent basis, Debye-Ang):
   XX=              9.0288   YY=              0.1551   ZZ=             -9.1839
   XY=             -1.6106   XZ=             -0.9657   YZ=              0.8951
 Octapole moment (field-independent basis, Debye-Ang**2):
  XXX=            -20.1777  YYY=             -1.4307  ZZZ=              0.1455  XYY=             -4.4790
  XXY=             13.1204  XXZ=              2.5446  XZZ=             -3.7992  YZZ=              4.8357
  YYZ=              2.2731  XYZ=             -2.5723
 Hexadecapole moment (field-independent basis, Debye-Ang**3):
 XXXX=          -1056.6904 YYYY=           -671.8870 ZZZZ=            -77.3764 XXXY=            -45.1227
 XXXZ=             -6.3856 YYYX=            -15.9830 YYYZ=              5.2868 ZZZX=             -0.5871
 ZZZY=              0.5770 XXYY=           -269.2461 XXZZ=           -238.7958 YYZZ=           -141.8048
 XXYZ=              6.3398 YYXZ=             -5.7678 ZZXY=             -8.6787
 N-N= 5.623577624141D+02 E-N=-2.199367245010D+03  KE= 4.616641206806D+02
 No NMR shielding tensors so no spin-rotation constants.
 Leave Link  601 at Mon Nov 21 14:51:55 2022, MaxMem= 16106127360 cpu:               3.9 elap:               0.2
 (Enter /opt/ap/G16/B01/g16/l9999.exe)
 1\1\GINC-N12\SP\RwB97XD\6-311++G(d,p)\C10H8O1\ROOT\21-Nov-2022\0\\#P w
 B97XD/6-311++G(d,p) scf=maxcycle=512\\_conf003.gjf nmol_natom 1_19\\0,
 1\C\C,1,1.40879539\C,1,1.42289824,2,117.24956717\C,2,1.41887971,1,119.
 07594714,3,0.16510261,0\C,2,1.42227783,1,117.46262303,3,-179.44443577,
 0\C,1,1.42440336,2,119.00293897,4,179.73740031,0\C,3,1.35510367,1,122.
 33979448,2,-0.36120568,0\O,3,1.37615658,1,115.04370777,2,-179.5931286,
 0\C,4,1.34577659,2,121.30210156,1,0.17277764,0\H,4,0.93023405,2,119.33
 469462,1,-179.75965297,0\C,5,1.34486794,2,122.06073707,1,-0.32265162,0
 \H,5,0.92957893,2,118.96449269,1,179.64671542,0\C,6,1.35980576,1,121.1
 112438,2,0.11625163,0\H,6,0.92999796,1,119.43671105,2,-179.87270235,0\
 H,7,0.93052813,3,120.28038366,1,-179.76477098,0\H,8,0.81991994,3,109.4
 8785721,1,-165.,0\H,9,0.93027331,4,119.71917791,2,179.60144151,0\H,11,
 0.92987565,5,119.70372857,2,-179.69197286,0\H,13,0.93032717,6,120.1452
 4692,1,179.85241379,0\\Version=ES64L-G16RevB.01\State=1-A\HF=-460.8927
 112\RMSD=3.544e-09\Dipole=0.4034098,-0.1352016,0.0913056\Quadrupole=5.
 7660738,-6.8278026,1.0617288,-0.4892271,-2.6104034,0.8304296\PG=C01 [X
 (C10H8O1)]\\@


 ON INDUCTION, OR "WHY DO YOU BELIEVE THE SUN WILL RISE TOMORROW?":

 ... THE FARMER WHO HAS FED THE CHICKEN EVERY DAY THROUGHOUT ITS
 LIFE AT LAST WRINGS ITS NECK INSTEAD, SHOWING THAT MORE REFINED VIEWS
 AS TO THE UNIFORMITY OF NATURE WOULD HAVE BEEN USEFUL TO THE CHICKEN.

                               -- BERTRAND RUSSELL
 Job cpu time:       0 days  0 hours 14 minutes 19.6 seconds.
 Elapsed time:       0 days  0 hours  0 minutes 27.1 seconds.
 File lengths (MBytes):  RWF=     51 Int=      0 D2E=      0 Chk=      6 Scr=      1
 Normal termination of Gaussian 16 at Mon Nov 21 14:51:55 2022.
