 Entering Gaussian System, Link 0=g16
 Input=_conf021.gjf
 Output=_conf021.log
 Initial command:
 /opt/ap/G16/B01/g16/l1.exe "/tmp2/scr/Gau-8598.inp" -scrdir="/tmp2/scr/"
 Entering Link 1 = /opt/ap/G16/B01/g16/l1.exe PID=      8599.
  
 Copyright (c) 1988-2017, Gaussian, Inc.  All Rights Reserved.
  
 This is part of the Gaussian(R) 16 program.  It is based on
 the Gaussian(R) 09 system (copyright 2009, Gaussian, Inc.),
 the Gaussian(R) 03 system (copyright 2003, Gaussian, Inc.),
 the Gaussian(R) 98 system (copyright 1998, Gaussian, Inc.),
 the Gaussian(R) 94 system (copyright 1995, Gaussian, Inc.),
 the Gaussian 92(TM) system (copyright 1992, Gaussian, Inc.),
 the Gaussian 90(TM) system (copyright 1990, Gaussian, Inc.),
 the Gaussian 88(TM) system (copyright 1988, Gaussian, Inc.),
 the Gaussian 86(TM) system (copyright 1986, Carnegie Mellon
 University), and the Gaussian 82(TM) system (copyright 1983,
 Carnegie Mellon University). Gaussian is a federally registered
 trademark of Gaussian, Inc.
  
 This software contains proprietary and confidential information,
 including trade secrets, belonging to Gaussian, Inc.
  
 This software is provided under written license and may be
 used, copied, transmitted, or stored only in accord with that
 written license.
  
 The following legend is applicable only to US Government
 contracts under FAR:
  
                    RESTRICTED RIGHTS LEGEND
  
 Use, reproduction and disclosure by the US Government is
 subject to restrictions as set forth in subparagraphs (a)
 and (c) of the Commercial Computer Software - Restricted
 Rights clause in FAR 52.227-19.
  
 Gaussian, Inc.
 340 Quinnipiac St., Bldg. 40, Wallingford CT 06492
  
  
 ---------------------------------------------------------------
 Warning -- This program may not be used in any manner that
 competes with the business of Gaussian, Inc. or will provide
 assistance to any competitor of Gaussian, Inc.  The licensee
 of this program is prohibited from giving any competitor of
 Gaussian, Inc. access to this program.  By using this program,
 the user acknowledges that Gaussian, Inc. is engaged in the
 business of creating and licensing software in the field of
 computational chemistry and represents and warrants to the
 licensee that it is not a competitor of Gaussian, Inc. and that
 it will not use this program in any manner prohibited above.
 ---------------------------------------------------------------
  

 Cite this work as:
 Gaussian 16, Revision B.01,
 M. J. Frisch, G. W. Trucks, H. B. Schlegel, G. E. Scuseria, 
 M. A. Robb, J. R. Cheeseman, G. Scalmani, V. Barone, 
 G. A. Petersson, H. Nakatsuji, X. Li, M. Caricato, A. V. Marenich, 
 J. Bloino, B. G. Janesko, R. Gomperts, B. Mennucci, H. P. Hratchian, 
 J. V. Ortiz, A. F. Izmaylov, J. L. Sonnenberg, D. Williams-Young, 
 F. Ding, F. Lipparini, F. Egidi, J. Goings, B. Peng, A. Petrone, 
 T. Henderson, D. Ranasinghe, V. G. Zakrzewski, J. Gao, N. Rega, 
 G. Zheng, W. Liang, M. Hada, M. Ehara, K. Toyota, R. Fukuda, 
 J. Hasegawa, M. Ishida, T. Nakajima, Y. Honda, O. Kitao, H. Nakai, 
 T. Vreven, K. Throssell, J. A. Montgomery, Jr., J. E. Peralta, 
 F. Ogliaro, M. J. Bearpark, J. J. Heyd, E. N. Brothers, K. N. Kudin, 
 V. N. Staroverov, T. A. Keith, R. Kobayashi, J. Normand, 
 K. Raghavachari, A. P. Rendell, J. C. Burant, S. S. Iyengar, 
 J. Tomasi, M. Cossi, J. M. Millam, M. Klene, C. Adamo, R. Cammi, 
 J. W. Ochterski, R. L. Martin, K. Morokuma, O. Farkas, 
 J. B. Foresman, and D. J. Fox, Gaussian, Inc., Wallingford CT, 2016.
 
 ******************************************
 Gaussian 16:  ES64L-G16RevB.01 20-Dec-2017
                21-Nov-2022 
 ******************************************
 %nprocshared=32
 Will use up to   32 processors via shared memory.
 %mem=120GB
 %chk=_conf021.chk
 ----------------------------------------
 #P wB97XD/6-311++G(d,p) scf=maxcycle=512
 ----------------------------------------
 1/38=1,172=1/1;
 2/12=2,17=6,18=5,40=1/2;
 3/5=4,6=6,7=1111,11=2,25=1,30=1,74=-58/1,2,3;
 4//1;
 5/5=2,7=512,38=5/2;
 6/7=2,8=2,9=2,10=2,28=1/1;
 99/5=1,9=1/99;
 Leave Link    1 at Mon Nov 21 14:53:41 2022, MaxMem= 16106127360 cpu:               1.4 elap:               0.0
 (Enter /opt/ap/G16/B01/g16/l101.exe)
 ----------------------------
 _conf021.gjf nmol_natom 1_19
 ----------------------------
 Symbolic Z-matrix:
 Charge =  0 Multiplicity = 1
 C
 C                    1     1.4088 
 C                    1     1.4229   2     117.24957 
 C                    2     1.41888  1     119.07595  3     0.1651   0
 C                    2     1.42228  1     117.46262  3    -179.44444  0
 C                    1     1.4244   2     119.00294  4     179.7374  0
 C                    3     1.3551   1     122.33979  2    -0.36121  0
 O                    3     1.37616  1     115.04371  2    -179.59313  0
 C                    4     1.34578  2     121.3021  1     0.17278  0
 H                    4     0.93023  2     119.33469  1    -179.75965  0
 C                    5     1.34487  2     122.06074  1    -0.32265  0
 H                    5     0.92958  2     118.96449  1     179.64672  0
 C                    6     1.35981  1     121.11124  2     0.11625  0
 H                    6     0.93     1     119.43671  2    -179.8727  0
 H                    7     0.93053  3     120.28038  1    -179.76477  0
 H                    8     0.81992  3     109.48786  1    -75.      0
 H                    9     0.93027  4     119.71918  2     179.60144  0
 H                    11    0.92988  5     119.70373  2    -179.69197  0
 H                    13    0.93033  6     120.14525  1     179.85241  0
 
 ITRead=  0  0  0  0  0  0  0  0  0  0  0  0  0  0  0  0  0  0  0
 MicOpt= -1 -1 -1 -1 -1 -1 -1 -1 -1 -1 -1 -1 -1 -1 -1 -1 -1 -1 -1
 NAtoms=     19 NQM=       19 NQMF=       0 NMMI=      0 NMMIF=      0
                NMic=       0 NMicF=      0.
                    Isotopes and Nuclear Properties:
 (Nuclear quadrupole moments (NQMom) in fm**2, nuclear magnetic moments (NMagM)
  in nuclear magnetons)

  Atom         1           2           3           4           5           6           7           8           9          10
 IAtWgt=          12          12          12          12          12          12          12          16          12           1
 AtmWgt=  12.0000000  12.0000000  12.0000000  12.0000000  12.0000000  12.0000000  12.0000000  15.9949146  12.0000000   1.0078250
 NucSpn=           0           0           0           0           0           0           0           0           0           1
 AtZEff=  -0.0000000  -0.0000000  -0.0000000  -0.0000000  -0.0000000  -0.0000000  -0.0000000  -0.0000000  -0.0000000  -0.0000000
 NQMom=    0.0000000   0.0000000   0.0000000   0.0000000   0.0000000   0.0000000   0.0000000   0.0000000   0.0000000   0.0000000
 NMagM=    0.0000000   0.0000000   0.0000000   0.0000000   0.0000000   0.0000000   0.0000000   0.0000000   0.0000000   2.7928460
 AtZNuc=   6.0000000   6.0000000   6.0000000   6.0000000   6.0000000   6.0000000   6.0000000   8.0000000   6.0000000   1.0000000

  Atom        11          12          13          14          15          16          17          18          19
 IAtWgt=          12           1          12           1           1           1           1           1           1
 AtmWgt=  12.0000000   1.0078250  12.0000000   1.0078250   1.0078250   1.0078250   1.0078250   1.0078250   1.0078250
 NucSpn=           0           1           0           1           1           1           1           1           1
 AtZEff=  -0.0000000  -0.0000000  -0.0000000  -0.0000000  -0.0000000  -0.0000000  -0.0000000  -0.0000000  -0.0000000
 NQMom=    0.0000000   0.0000000   0.0000000   0.0000000   0.0000000   0.0000000   0.0000000   0.0000000   0.0000000
 NMagM=    0.0000000   2.7928460   0.0000000   2.7928460   2.7928460   2.7928460   2.7928460   2.7928460   2.7928460
 AtZNuc=   6.0000000   1.0000000   6.0000000   1.0000000   1.0000000   1.0000000   1.0000000   1.0000000   1.0000000
 Leave Link  101 at Mon Nov 21 14:53:41 2022, MaxMem= 16106127360 cpu:               5.3 elap:               0.2
 (Enter /opt/ap/G16/B01/g16/l202.exe)
                          Input orientation:                          
 ---------------------------------------------------------------------
 Center     Atomic      Atomic             Coordinates (Angstroms)
 Number     Number       Type             X           Y           Z
 ---------------------------------------------------------------------
      1          6           0        0.000000    0.000000    0.000000
      2          6           0        0.000000    0.000000    1.408795
      3          6           0        1.264986    0.000000   -0.651498
      4          6           0        1.240062    0.003573    2.098326
      5          6           0       -1.261945   -0.012237    2.064707
      6          6           0       -1.245741   -0.009299   -0.690628
      7          6           0        2.433644    0.007218    0.034427
      8          8           0        1.212032    0.008854   -2.026607
      9          6           0        2.409936    0.010412    1.433147
     10          1           0        1.244276    0.000184    3.028545
     11          6           0       -2.421000   -0.017057    1.382624
     12          1           0       -1.286266   -0.017488    2.993953
     13          6           0       -2.424704   -0.015738   -0.013076
     14          1           0       -1.252769   -0.011151   -1.620598
     15          1           0        3.245045    0.010306   -0.421097
     16          1           0        0.999175   -0.735377   -2.296942
     17          1           0        3.210137    0.018260    1.907515
     18          1           0       -3.227740   -0.020753    1.845035
     19          1           0       -3.230632   -0.019714   -0.477804
 ---------------------------------------------------------------------
                    Distance matrix (angstroms):
                    1          2          3          4          5
     1  C    0.000000
     2  C    1.408795   0.000000
     3  C    1.422898   2.417643   0.000000
     4  C    2.437363   1.418880   2.749940   0.000000
     5  C    2.419849   1.422278   3.709892   2.502283   0.000000
     6  C    1.424403   2.441216   2.511049   3.735994   2.755385
     7  C    2.433898   2.794917   1.355104   2.384184   4.216609
     8  O    2.361406   3.642951   1.376157   4.125032   4.781198
     9  C    2.803892   2.410081   2.378396   1.345777   3.725867
    10  H    3.274188   2.042501   3.680101   0.930234   2.685197
    11  C    2.788042   2.421201   4.210040   3.730420   1.344868
    12  H    3.258610   2.041448   4.449551   2.680471   0.929579
    13  C    2.424790   2.810899   3.744548   4.229527   2.381009
    14  H    2.048388   3.278228   2.697845   4.477144   3.685317
    15  H    3.272269   3.725443   1.993445   3.219859   5.147104
    16  H    2.610569   3.907892   1.821790   4.463458   4.965840
    17  H    3.734157   3.248697   3.214420   1.979348   4.474947
    18  H    3.717915   3.257153   5.139815   4.475043   1.978050
    19  H    3.265834   3.741207   4.499015   5.159854   3.215610
                    6          7          8          9         10
     6  C    0.000000
     7  C    3.750180   0.000000
     8  O    2.797466   2.395871   0.000000
     9  C    4.227858   1.398925   3.661267   0.000000
    10  H    4.475771   3.221706   5.055262   1.975895   0.000000
    11  C    2.383205   5.038431   4.982213   4.831278   4.017910
    12  H    3.684813   4.753644   5.607870   4.012331   2.530840
    13  C    1.359806   4.858634   4.157013   5.046383   4.765829
    14  H    0.929998   4.040926   2.498097   4.768777   5.277300
    15  H    4.498910   0.930528   2.590522   2.033624   3.987882
    16  H    2.854309   2.836270   0.819920   4.057094   5.381629
    17  H    5.158096   2.027689   4.412463   0.930273   2.263105
    18  H    3.218391   5.943934   5.890846   5.652788   4.626021
    19  H    1.996295   5.687453   4.704984   5.955556   5.685040
                   11         12         13         14         15
    11  C    0.000000
    12  H    1.970788   0.000000
    13  C    1.395705   3.215317   0.000000
    14  H    3.222443   4.614677   1.989366   0.000000
    15  H    5.946277   5.674162   5.684470   4.655061   0.000000
    16  H    5.074719   5.807940   4.178141   2.460324   3.019730
    17  H    5.655657   4.625934   5.953256   5.689110   2.328887
    18  H    0.929876   2.255958   2.024221   3.988887   6.858080
    19  H    2.028966   3.979153   0.930327   2.284293   6.475995
                   16         17         18         19
    16  H    0.000000
    17  H    4.809759   0.000000
    18  H    5.960996   6.438299   0.000000
    19  H    4.659689   6.868384   2.322841   0.000000
 Stoichiometry    C10H8O
 Framework group  C1[X(C10H8O)]
 Deg. of freedom    51
 Full point group                 C1      NOp   1
 Largest Abelian subgroup         C1      NOp   1
 Largest concise Abelian subgroup C1      NOp   1
                         Standard orientation:                         
 ---------------------------------------------------------------------
 Center     Atomic      Atomic             Coordinates (Angstroms)
 Number     Number       Type             X           Y           Z
 ---------------------------------------------------------------------
      1          6           0        0.027750    0.426868   -0.017563
      2          6           0        0.345186   -0.945583    0.000286
      3          6           0       -1.351503    0.776566   -0.020879
      4          6           0       -0.707620   -1.896749    0.010291
      5          6           0        1.722483   -1.300104    0.015906
      6          6           0        1.085848    1.380458   -0.021878
      7          6           0       -2.335558   -0.155049   -0.014843
      8          8           0       -1.609766    2.128012   -0.047361
      9          6           0       -1.997297   -1.512385   -0.000408
     10          1           0       -0.502122   -2.803874    0.025482
     11          6           0        2.698045   -0.374426    0.007559
     12          1           0        1.955565   -2.199827    0.032835
     13          6           0        2.387167    0.986083   -0.011458
     14          1           0        0.883152    2.288044   -0.031836
     15          1           0       -3.228736    0.105879   -0.020535
     16          1           0       -1.462589    2.449169    0.692548
     17          1           0       -2.670040   -2.154898    0.000878
     18          1           0        3.588235   -0.643107    0.013964
     19          1           0        3.067658    1.620444   -0.016517
 ---------------------------------------------------------------------
 Rotational constants (GHZ):           2.0028348           1.1553650           0.7338330
 Leave Link  202 at Mon Nov 21 14:53:41 2022, MaxMem= 16106127360 cpu:               0.3 elap:               0.0
 (Enter /opt/ap/G16/B01/g16/l301.exe)
 Standard basis: 6-311++G(d,p) (5D, 7F)
 Ernie: Thresh=  0.10000D-02 Tol=  0.10000D-05 Strict=F.
 There are   309 symmetry adapted cartesian basis functions of A   symmetry.
 There are   298 symmetry adapted basis functions of A   symmetry.
   298 basis functions,   468 primitive gaussians,   309 cartesian basis functions
    38 alpha electrons       38 beta electrons
       nuclear repulsion energy       562.8596750929 Hartrees.
 IExCor= 4639 DFT=T Ex+Corr=wB97XD ExCW=0 ScaHFX=  1.000000
 ScaDFX=  1.000000  1.000000  1.000000  1.000000 ScalE2=  1.000000  1.000000
 IRadAn=      5 IRanWt=     -1 IRanGd=            0 ICorTp=0 IEmpDi=121
 HFx  wShort=  0.000000 wLong=  0.200000 cFull=  0.222036 cShort=  0.000000 cLong=  0.777964
 DFx  wShort=  0.000000 wLong=  0.200000 cFull=  0.000000 cShort=  0.000000 cLong=  1.000000
 NAtoms=   19 NActive=   19 NUniq=   19 SFac= 1.00D+00 NAtFMM=   60 NAOKFM=F Big=F
 Integral buffers will be    131072 words long.
 Raffenetti 2 integral format.
 Two-electron integral symmetry is turned on.
 R6Disp:  Grimme-D2 Dispersion energy=       -0.0103977914 Hartrees.
 Nuclear repulsion after empirical dispersion term =      562.8492773014 Hartrees.
 Leave Link  301 at Mon Nov 21 14:53:41 2022, MaxMem= 16106127360 cpu:               1.2 elap:               0.0
 (Enter /opt/ap/G16/B01/g16/l302.exe)
 NPDir=0 NMtPBC=     1 NCelOv=     1 NCel=       1 NClECP=     1 NCelD=      1
         NCelK=      1 NCelE2=     1 NClLst=     1 CellRange=     0.0.
 One-electron integrals computed using PRISM.
 One-electron integral symmetry used in STVInt
 NBasis=   298 RedAO= T EigKep=  1.32D-06  NBF=   298
 NBsUse=   296 1.00D-06 EigRej=  6.38D-07 NBFU=   296
 Precomputing XC quadrature grid using
 IXCGrd= 4 IRadAn=           5 IRanWt=          -1 IRanGd=           0 AccXCQ= 0.00D+00.
 Generated NRdTot=       0 NPtTot=           0 NUsed=           0 NTot=          32
 NSgBfM=   309   309   309   309   309 MxSgAt=    19 MxSgA2=    19.
 Leave Link  302 at Mon Nov 21 14:53:42 2022, MaxMem= 16106127360 cpu:               6.4 elap:               0.2
 (Enter /opt/ap/G16/B01/g16/l303.exe)
 DipDrv:  MaxL=1.
 Leave Link  303 at Mon Nov 21 14:53:42 2022, MaxMem= 16106127360 cpu:               2.2 elap:               0.1
 (Enter /opt/ap/G16/B01/g16/l401.exe)
 ExpMin= 3.60D-02 ExpMax= 8.59D+03 ExpMxC= 1.30D+03 IAcc=3 IRadAn=         5 AccDes= 0.00D+00
 Harris functional with IExCor= 4639 and IRadAn=       5 diagonalized for initial guess.
 HarFok:  IExCor= 4639 AccDes= 0.00D+00 IRadAn=         5 IDoV= 1 UseB2=F ITyADJ=14
 ICtDFT=  3500011 ScaDFX=  1.000000  1.000000  1.000000  1.000000
 FoFCou: FMM=F IPFlag=           0 FMFlag=      100000 FMFlg1=           0
         NFxFlg=           0 DoJE=T BraDBF=F KetDBF=T FulRan=T
         wScrn=  0.000000 ICntrl=       500 IOpCl=  0 I1Cent=   200000004 NGrid=           0
         NMat0=    1 NMatS0=      1 NMatT0=    0 NMatD0=    1 NMtDS0=    0 NMtDT0=    0
 Petite list used in FoFCou.
 Harris En= -440.610515061381    
 JPrj=0 DoOrth=F DoCkMO=F.
 Leave Link  401 at Mon Nov 21 14:53:42 2022, MaxMem= 16106127360 cpu:              16.3 elap:               0.5
 (Enter /opt/ap/G16/B01/g16/l502.exe)
 Integral symmetry usage will be decided dynamically.
 Closed shell SCF:
 Using DIIS extrapolation, IDIIS=  1040.
 NGot= 16106127360 LenX= 16105923535 LenY= 16105827613
 Requested convergence on RMS density matrix=1.00D-08 within 512 cycles.
 Requested convergence on MAX density matrix=1.00D-06.
 Requested convergence on             energy=1.00D-06.
 No special actions if energy rises.
 Fock matrices will be formed incrementally for  20 cycles.

 Cycle   1  Pass 1  IDiag  1:
 FoFJK:  IHMeth= 1 ICntrl=       0 DoSepK=T KAlg= 0 I1Cent=           0 FoldK=F
 IRaf=         1 NMat=       1 IRICut=       1 DoRegI=T DoRafI=F ISym2E= 0 IDoP0=0 IntGTp=1.
 FoFCou: FMM=F IPFlag=           0 FMFlag=      100000 FMFlg1=           0
         NFxFlg=           0 DoJE=T BraDBF=F KetDBF=F FulRan=T
         wScrn=  0.000000 ICntrl=       500 IOpCl=  0 I1Cent=           0 NGrid=           0
         NMat0=    1 NMatS0=      1 NMatT0=    0 NMatD0=    1 NMtDS0=    0 NMtDT0=    0
 Symmetry not used in FoFCou.
 E= -460.754619749636    
 DIIS: error= 5.36D-02 at cycle   1 NSaved=   1.
 NSaved= 1 IEnMin= 1 EnMin= -460.754619749636     IErMin= 1 ErrMin= 5.36D-02
 ErrMax= 5.36D-02  0.00D+00 EMaxC= 1.00D-01 BMatC= 9.51D-01 BMatP= 9.51D-01
 IDIUse=3 WtCom= 4.64D-01 WtEn= 5.36D-01
 Coeff-Com:  0.100D+01
 Coeff-En:   0.100D+01
 Coeff:      0.100D+01
 Gap=     0.326 Goal=   None    Shift=    0.000
 GapD=    0.326 DampG=1.000 DampE=0.500 DampFc=0.5000 IDamp=-1.
 Damping current iteration by 5.00D-01
 RMSDP=4.17D-02 MaxDP=4.46D+00              OVMax= 1.26D-01

 Cycle   2  Pass 1  IDiag  1:
 RMSU=  8.41D-03    CP:  8.17D-01
 E= -460.819663864027     Delta-E=       -0.065044114391 Rises=F Damp=T
 DIIS: error= 2.65D-02 at cycle   2 NSaved=   2.
 NSaved= 2 IEnMin= 2 EnMin= -460.819663864027     IErMin= 2 ErrMin= 2.65D-02
 ErrMax= 2.65D-02  0.00D+00 EMaxC= 1.00D-01 BMatC= 2.08D-01 BMatP= 9.51D-01
 IDIUse=3 WtCom= 7.35D-01 WtEn= 2.65D-01
 Coeff-Com: -0.735D+00 0.174D+01
 Coeff-En:   0.000D+00 0.100D+01
 Coeff:     -0.540D+00 0.154D+01
 Gap=     0.334 Goal=   None    Shift=    0.000
 RMSDP=2.39D-02 MaxDP=2.52D+00 DE=-6.50D-02 OVMax= 1.27D-01

 Cycle   3  Pass 1  IDiag  1:
 RMSU=  8.12D-03    CP:  6.07D-01  1.61D+00
 E= -460.861812382049     Delta-E=       -0.042148518022 Rises=F Damp=F
 DIIS: error= 7.28D-03 at cycle   3 NSaved=   3.
 NSaved= 3 IEnMin= 3 EnMin= -460.861812382049     IErMin= 3 ErrMin= 7.28D-03
 ErrMax= 7.28D-03  0.00D+00 EMaxC= 1.00D-01 BMatC= 2.69D-02 BMatP= 2.08D-01
 IDIUse=3 WtCom= 9.27D-01 WtEn= 7.28D-02
 Coeff-Com: -0.371D+00 0.788D+00 0.583D+00
 Coeff-En:   0.000D+00 0.000D+00 0.100D+01
 Coeff:     -0.344D+00 0.731D+00 0.614D+00
 Gap=     0.315 Goal=   None    Shift=    0.000
 RMSDP=4.99D-03 MaxDP=3.70D-01 DE=-4.21D-02 OVMax= 5.66D-02

 Cycle   4  Pass 1  IDiag  1:
 RMSU=  1.53D-03    CP:  5.79D-01  1.69D+00  5.38D-01
 E= -460.886362579274     Delta-E=       -0.024550197225 Rises=F Damp=F
 DIIS: error= 1.38D-03 at cycle   4 NSaved=   4.
 NSaved= 4 IEnMin= 4 EnMin= -460.886362579274     IErMin= 4 ErrMin= 1.38D-03
 ErrMax= 1.38D-03  0.00D+00 EMaxC= 1.00D-01 BMatC= 6.62D-04 BMatP= 2.69D-02
 IDIUse=3 WtCom= 9.86D-01 WtEn= 1.38D-02
 Coeff-Com: -0.133D+00 0.283D+00 0.274D+00 0.575D+00
 Coeff-En:   0.000D+00 0.000D+00 0.000D+00 0.100D+01
 Coeff:     -0.131D+00 0.279D+00 0.271D+00 0.581D+00
 Gap=     0.310 Goal=   None    Shift=    0.000
 RMSDP=6.76D-04 MaxDP=3.65D-02 DE=-2.46D-02 OVMax= 7.26D-03

 Cycle   5  Pass 1  IDiag  1:
 RMSU=  3.95D-04    CP:  5.82D-01  1.71D+00  5.89D-01  8.51D-01
 E= -460.886997463256     Delta-E=       -0.000634883983 Rises=F Damp=F
 DIIS: error= 2.10D-04 at cycle   5 NSaved=   5.
 NSaved= 5 IEnMin= 5 EnMin= -460.886997463256     IErMin= 5 ErrMin= 2.10D-04
 ErrMax= 2.10D-04  0.00D+00 EMaxC= 1.00D-01 BMatC= 1.61D-05 BMatP= 6.62D-04
 IDIUse=3 WtCom= 9.98D-01 WtEn= 2.10D-03
 Coeff-Com:  0.471D-02-0.979D-02 0.120D-01 0.145D+00 0.848D+00
 Coeff-En:   0.000D+00 0.000D+00 0.000D+00 0.000D+00 0.100D+01
 Coeff:      0.470D-02-0.977D-02 0.120D-01 0.145D+00 0.848D+00
 Gap=     0.311 Goal=   None    Shift=    0.000
 RMSDP=1.89D-04 MaxDP=7.11D-03 DE=-6.35D-04 OVMax= 2.39D-03

 Cycle   6  Pass 1  IDiag  1:
 RMSU=  1.48D-04    CP:  5.81D-01  1.71D+00  5.91D-01  9.03D-01  1.12D+00
 E= -460.887018107737     Delta-E=       -0.000020644480 Rises=F Damp=F
 DIIS: error= 1.21D-04 at cycle   6 NSaved=   6.
 NSaved= 6 IEnMin= 6 EnMin= -460.887018107737     IErMin= 6 ErrMin= 1.21D-04
 ErrMax= 1.21D-04  0.00D+00 EMaxC= 1.00D-01 BMatC= 3.27D-06 BMatP= 1.61D-05
 IDIUse=3 WtCom= 9.99D-01 WtEn= 1.21D-03
 Coeff-Com:  0.160D-01-0.342D-01-0.226D-01-0.419D-02 0.333D+00 0.712D+00
 Coeff-En:   0.000D+00 0.000D+00 0.000D+00 0.000D+00 0.000D+00 0.100D+01
 Coeff:      0.160D-01-0.341D-01-0.226D-01-0.418D-02 0.333D+00 0.712D+00
 Gap=     0.311 Goal=   None    Shift=    0.000
 RMSDP=1.02D-04 MaxDP=5.14D-03 DE=-2.06D-05 OVMax= 9.01D-04

 Cycle   7  Pass 1  IDiag  1:
 RMSU=  4.66D-05    CP:  5.81D-01  1.71D+00  5.87D-01  9.25D-01  1.20D+00
                    CP:  1.04D+00
 E= -460.887022649667     Delta-E=       -0.000004541930 Rises=F Damp=F
 DIIS: error= 4.04D-05 at cycle   7 NSaved=   7.
 NSaved= 7 IEnMin= 7 EnMin= -460.887022649667     IErMin= 7 ErrMin= 4.04D-05
 ErrMax= 4.04D-05  0.00D+00 EMaxC= 1.00D-01 BMatC= 2.19D-07 BMatP= 3.27D-06
 IDIUse=1 WtCom= 1.00D+00 WtEn= 0.00D+00
 Coeff-Com:  0.143D-02-0.301D-02-0.254D-02-0.133D-01-0.505D-01 0.847D-01
 Coeff-Com:  0.983D+00
 Coeff:      0.143D-02-0.301D-02-0.254D-02-0.133D-01-0.505D-01 0.847D-01
 Coeff:      0.983D+00
 Gap=     0.311 Goal=   None    Shift=    0.000
 RMSDP=2.19D-05 MaxDP=1.67D-03 DE=-4.54D-06 OVMax= 5.61D-04

 Cycle   8  Pass 1  IDiag  1:
 RMSU=  1.41D-05    CP:  5.81D-01  1.71D+00  5.87D-01  9.26D-01  1.21D+00
                    CP:  1.11D+00  1.06D+00
 E= -460.887023354967     Delta-E=       -0.000000705301 Rises=F Damp=F
 DIIS: error= 2.77D-05 at cycle   8 NSaved=   8.
 NSaved= 8 IEnMin= 8 EnMin= -460.887023354967     IErMin= 8 ErrMin= 2.77D-05
 ErrMax= 2.77D-05  0.00D+00 EMaxC= 1.00D-01 BMatC= 7.21D-08 BMatP= 2.19D-07
 IDIUse=1 WtCom= 1.00D+00 WtEn= 0.00D+00
 Coeff-Com: -0.193D-02 0.415D-02 0.281D-02-0.448D-02-0.764D-01-0.880D-01
 Coeff-Com:  0.412D+00 0.752D+00
 Coeff:     -0.193D-02 0.415D-02 0.281D-02-0.448D-02-0.764D-01-0.880D-01
 Coeff:      0.412D+00 0.752D+00
 Gap=     0.311 Goal=   None    Shift=    0.000
 RMSDP=1.31D-05 MaxDP=1.36D-03 DE=-7.05D-07 OVMax= 2.07D-04

 Cycle   9  Pass 1  IDiag  1:
 RMSU=  8.07D-06    CP:  5.81D-01  1.71D+00  5.87D-01  9.27D-01  1.22D+00
                    CP:  1.15D+00  1.13D+00  9.03D-01
 E= -460.887023506292     Delta-E=       -0.000000151325 Rises=F Damp=F
 DIIS: error= 8.01D-06 at cycle   9 NSaved=   9.
 NSaved= 9 IEnMin= 9 EnMin= -460.887023506292     IErMin= 9 ErrMin= 8.01D-06
 ErrMax= 8.01D-06  0.00D+00 EMaxC= 1.00D-01 BMatC= 5.11D-09 BMatP= 7.21D-08
 IDIUse=1 WtCom= 1.00D+00 WtEn= 0.00D+00
 Coeff-Com: -0.738D-03 0.158D-02 0.124D-02 0.122D-02-0.114D-01-0.382D-01
 Coeff-Com: -0.508D-01 0.137D+00 0.960D+00
 Coeff:     -0.738D-03 0.158D-02 0.124D-02 0.122D-02-0.114D-01-0.382D-01
 Coeff:     -0.508D-01 0.137D+00 0.960D+00
 Gap=     0.311 Goal=   None    Shift=    0.000
 RMSDP=4.42D-06 MaxDP=2.96D-04 DE=-1.51D-07 OVMax= 1.13D-04

 Cycle  10  Pass 1  IDiag  1:
 RMSU=  3.23D-06    CP:  5.81D-01  1.71D+00  5.87D-01  9.26D-01  1.22D+00
                    CP:  1.15D+00  1.13D+00  1.00D+00  1.06D+00
 E= -460.887023528653     Delta-E=       -0.000000022361 Rises=F Damp=F
 DIIS: error= 4.40D-06 at cycle  10 NSaved=  10.
 NSaved=10 IEnMin=10 EnMin= -460.887023528653     IErMin=10 ErrMin= 4.40D-06
 ErrMax= 4.40D-06  0.00D+00 EMaxC= 1.00D-01 BMatC= 7.59D-10 BMatP= 5.11D-09
 IDIUse=1 WtCom= 1.00D+00 WtEn= 0.00D+00
 Coeff-Com:  0.323D-04-0.737D-04 0.850D-06 0.867D-03 0.586D-02 0.796D-03
 Coeff-Com: -0.514D-01-0.676D-01 0.217D+00 0.895D+00
 Coeff:      0.323D-04-0.737D-04 0.850D-06 0.867D-03 0.586D-02 0.796D-03
 Coeff:     -0.514D-01-0.676D-01 0.217D+00 0.895D+00
 Gap=     0.311 Goal=   None    Shift=    0.000
 RMSDP=1.68D-06 MaxDP=1.21D-04 DE=-2.24D-08 OVMax= 3.68D-05

 Cycle  11  Pass 1  IDiag  1:
 RMSU=  7.26D-07    CP:  5.81D-01  1.71D+00  5.87D-01  9.26D-01  1.22D+00
                    CP:  1.15D+00  1.12D+00  1.00D+00  1.14D+00  1.15D+00
 E= -460.887023531275     Delta-E=       -0.000000002622 Rises=F Damp=F
 DIIS: error= 9.94D-07 at cycle  11 NSaved=  11.
 NSaved=11 IEnMin=11 EnMin= -460.887023531275     IErMin=11 ErrMin= 9.94D-07
 ErrMax= 9.94D-07  0.00D+00 EMaxC= 1.00D-01 BMatC= 1.87D-10 BMatP= 7.59D-10
 IDIUse=1 WtCom= 1.00D+00 WtEn= 0.00D+00
 Coeff-Com:  0.127D-03-0.272D-03-0.197D-03 0.148D-03 0.393D-02 0.579D-02
 Coeff-Com: -0.106D-01-0.477D-01-0.712D-01 0.348D+00 0.772D+00
 Coeff:      0.127D-03-0.272D-03-0.197D-03 0.148D-03 0.393D-02 0.579D-02
 Coeff:     -0.106D-01-0.477D-01-0.712D-01 0.348D+00 0.772D+00
 Gap=     0.311 Goal=   None    Shift=    0.000
 RMSDP=5.99D-07 MaxDP=2.35D-05 DE=-2.62D-09 OVMax= 1.44D-05

 Cycle  12  Pass 1  IDiag  1:
 RMSU=  3.06D-07    CP:  5.81D-01  1.71D+00  5.87D-01  9.26D-01  1.22D+00
                    CP:  1.15D+00  1.11D+00  1.01D+00  1.15D+00  1.23D+00
                    CP:  1.14D+00
 E= -460.887023531758     Delta-E=       -0.000000000483 Rises=F Damp=F
 DIIS: error= 4.34D-07 at cycle  12 NSaved=  12.
 NSaved=12 IEnMin=12 EnMin= -460.887023531758     IErMin=12 ErrMin= 4.34D-07
 ErrMax= 4.34D-07  0.00D+00 EMaxC= 1.00D-01 BMatC= 1.48D-11 BMatP= 1.87D-10
 IDIUse=1 WtCom= 1.00D+00 WtEn= 0.00D+00
 Coeff-Com:  0.726D-05-0.148D-04-0.219D-04-0.115D-03-0.480D-03 0.223D-03
 Coeff-Com:  0.666D-02 0.656D-02-0.435D-01-0.978D-01 0.273D-01 0.110D+01
 Coeff:      0.726D-05-0.148D-04-0.219D-04-0.115D-03-0.480D-03 0.223D-03
 Coeff:      0.666D-02 0.656D-02-0.435D-01-0.978D-01 0.273D-01 0.110D+01
 Gap=     0.311 Goal=   None    Shift=    0.000
 RMSDP=3.00D-07 MaxDP=1.23D-05 DE=-4.83D-10 OVMax= 7.98D-06

 Cycle  13  Pass 1  IDiag  1:
 RMSU=  1.01D-07    CP:  5.81D-01  1.71D+00  5.87D-01  9.26D-01  1.22D+00
                    CP:  1.15D+00  1.11D+00  1.00D+00  1.14D+00  1.26D+00
                    CP:  1.32D+00  1.40D+00
 E= -460.887023531848     Delta-E=       -0.000000000090 Rises=F Damp=F
 DIIS: error= 1.37D-07 at cycle  13 NSaved=  13.
 NSaved=13 IEnMin=13 EnMin= -460.887023531848     IErMin=13 ErrMin= 1.37D-07
 ErrMax= 1.37D-07  0.00D+00 EMaxC= 1.00D-01 BMatC= 5.29D-12 BMatP= 1.48D-11
 IDIUse=1 WtCom= 1.00D+00 WtEn= 0.00D+00
 Coeff-Com: -0.120D-04 0.260D-04 0.144D-04-0.682D-04-0.668D-03-0.628D-03
 Coeff-Com:  0.439D-02 0.952D-02-0.821D-02-0.840D-01-0.921D-01 0.491D+00
 Coeff-Com:  0.681D+00
 Coeff:     -0.120D-04 0.260D-04 0.144D-04-0.682D-04-0.668D-03-0.628D-03
 Coeff:      0.439D-02 0.952D-02-0.821D-02-0.840D-01-0.921D-01 0.491D+00
 Coeff:      0.681D+00
 Gap=     0.311 Goal=   None    Shift=    0.000
 RMSDP=7.26D-08 MaxDP=4.32D-06 DE=-9.02D-11 OVMax= 1.98D-06

 Cycle  14  Pass 1  IDiag  1:
 RMSU=  4.16D-08    CP:  5.81D-01  1.71D+00  5.87D-01  9.26D-01  1.22D+00
                    CP:  1.15D+00  1.11D+00  1.00D+00  1.14D+00  1.26D+00
                    CP:  1.36D+00  1.51D+00  1.09D+00
 E= -460.887023531855     Delta-E=       -0.000000000007 Rises=F Damp=F
 DIIS: error= 9.55D-08 at cycle  14 NSaved=  14.
 NSaved=14 IEnMin=14 EnMin= -460.887023531855     IErMin=14 ErrMin= 9.55D-08
 ErrMax= 9.55D-08  0.00D+00 EMaxC= 1.00D-01 BMatC= 5.01D-13 BMatP= 5.29D-12
 IDIUse=1 WtCom= 1.00D+00 WtEn= 0.00D+00
 Coeff-Com: -0.384D-05 0.819D-05 0.669D-05 0.167D-05-0.540D-04-0.182D-03
 Coeff-Com: -0.429D-03 0.854D-03 0.642D-02 0.926D-04-0.265D-01-0.115D+00
 Coeff-Com:  0.125D+00 0.101D+01
 Coeff:     -0.384D-05 0.819D-05 0.669D-05 0.167D-05-0.540D-04-0.182D-03
 Coeff:     -0.429D-03 0.854D-03 0.642D-02 0.926D-04-0.265D-01-0.115D+00
 Coeff:      0.125D+00 0.101D+01
 Gap=     0.311 Goal=   None    Shift=    0.000
 RMSDP=5.17D-08 MaxDP=2.36D-06 DE=-6.93D-12 OVMax= 1.35D-06

 Cycle  15  Pass 1  IDiag  1:
 RMSU=  2.13D-08    CP:  5.81D-01  1.71D+00  5.87D-01  9.26D-01  1.22D+00
                    CP:  1.15D+00  1.11D+00  1.00D+00  1.14D+00  1.26D+00
                    CP:  1.36D+00  1.54D+00  1.25D+00  1.22D+00
 E= -460.887023531855     Delta-E=       -0.000000000001 Rises=F Damp=F
 DIIS: error= 2.91D-08 at cycle  15 NSaved=  15.
 NSaved=15 IEnMin=15 EnMin= -460.887023531855     IErMin=15 ErrMin= 2.91D-08
 ErrMax= 2.91D-08  0.00D+00 EMaxC= 1.00D-01 BMatC= 8.99D-14 BMatP= 5.01D-13
 IDIUse=1 WtCom= 1.00D+00 WtEn= 0.00D+00
 Coeff-Com:  0.261D-07-0.134D-06 0.561D-06 0.768D-05 0.584D-04 0.190D-04
 Coeff-Com: -0.675D-03-0.819D-03 0.246D-02 0.921D-02 0.452D-02-0.888D-01
 Coeff-Com: -0.589D-01 0.297D+00 0.836D+00
 Coeff:      0.261D-07-0.134D-06 0.561D-06 0.768D-05 0.584D-04 0.190D-04
 Coeff:     -0.675D-03-0.819D-03 0.246D-02 0.921D-02 0.452D-02-0.888D-01
 Coeff:     -0.589D-01 0.297D+00 0.836D+00
 Gap=     0.311 Goal=   None    Shift=    0.000
 RMSDP=1.62D-08 MaxDP=1.22D-06 DE=-5.68D-13 OVMax= 4.28D-07

 Cycle  16  Pass 1  IDiag  1:
 RMSU=  7.19D-09    CP:  5.81D-01  1.71D+00  5.87D-01  9.26D-01  1.22D+00
                    CP:  1.15D+00  1.11D+00  1.00D+00  1.14D+00  1.26D+00
                    CP:  1.35D+00  1.53D+00  1.28D+00  1.34D+00  1.27D+00
 E= -460.887023531847     Delta-E=        0.000000000009 Rises=F Damp=F
 DIIS: error= 1.25D-08 at cycle  16 NSaved=  16.
 NSaved=16 IEnMin=15 EnMin= -460.887023531855     IErMin=16 ErrMin= 1.25D-08
 ErrMax= 1.25D-08  0.00D+00 EMaxC= 1.00D-01 BMatC= 1.67D-14 BMatP= 8.99D-14
 IDIUse=1 WtCom= 1.00D+00 WtEn= 0.00D+00
 Coeff-Com:  0.609D-06-0.133D-05-0.907D-06 0.194D-05 0.268D-04 0.435D-04
 Coeff-Com: -0.128D-03-0.384D-03-0.353D-03 0.293D-02 0.768D-02-0.809D-02
 Coeff-Com: -0.535D-01-0.935D-01 0.261D+00 0.885D+00
 Coeff:      0.609D-06-0.133D-05-0.907D-06 0.194D-05 0.268D-04 0.435D-04
 Coeff:     -0.128D-03-0.384D-03-0.353D-03 0.293D-02 0.768D-02-0.809D-02
 Coeff:     -0.535D-01-0.935D-01 0.261D+00 0.885D+00
 Gap=     0.311 Goal=   None    Shift=    0.000
 RMSDP=7.69D-09 MaxDP=5.87D-07 DE= 8.75D-12 OVMax= 1.85D-07

 SCF Done:  E(RwB97XD) =  -460.887023532     A.U. after   16 cycles
            NFock= 16  Conv=0.77D-08     -V/T= 1.9983
 KE= 4.616926485964D+02 PE=-2.200315955285D+03 EE= 7.148870058556D+02
 Leave Link  502 at Mon Nov 21 14:54:05 2022, MaxMem= 16106127360 cpu:             722.5 elap:              22.6
 (Enter /opt/ap/G16/B01/g16/l601.exe)
 Copying SCF densities to generalized density rwf, IOpCl= 0 IROHF=0.

 **********************************************************************

            Population analysis using the SCF Density.

 **********************************************************************

 Orbital symmetries:
       Occupied  (A) (A) (A) (A) (A) (A) (A) (A) (A) (A) (A) (A)
                 (A) (A) (A) (A) (A) (A) (A) (A) (A) (A) (A) (A)
                 (A) (A) (A) (A) (A) (A) (A) (A) (A) (A) (A) (A)
                 (A) (A)
       Virtual   (A) (A) (A) (A) (A) (A) (A) (A) (A) (A) (A) (A)
                 (A) (A) (A) (A) (A) (A) (A) (A) (A) (A) (A) (A)
                 (A) (A) (A) (A) (A) (A) (A) (A) (A) (A) (A) (A)
                 (A) (A) (A) (A) (A) (A) (A) (A) (A) (A) (A) (A)
                 (A) (A) (A) (A) (A) (A) (A) (A) (A) (A) (A) (A)
                 (A) (A) (A) (A) (A) (A) (A) (A) (A) (A) (A) (A)
                 (A) (A) (A) (A) (A) (A) (A) (A) (A) (A) (A) (A)
                 (A) (A) (A) (A) (A) (A) (A) (A) (A) (A) (A) (A)
                 (A) (A) (A) (A) (A) (A) (A) (A) (A) (A) (A) (A)
                 (A) (A) (A) (A) (A) (A) (A) (A) (A) (A) (A) (A)
                 (A) (A) (A) (A) (A) (A) (A) (A) (A) (A) (A) (A)
                 (A) (A) (A) (A) (A) (A) (A) (A) (A) (A) (A) (A)
                 (A) (A) (A) (A) (A) (A) (A) (A) (A) (A) (A) (A)
                 (A) (A) (A) (A) (A) (A) (A) (A) (A) (A) (A) (A)
                 (A) (A) (A) (A) (A) (A) (A) (A) (A) (A) (A) (A)
                 (A) (A) (A) (A) (A) (A) (A) (A) (A) (A) (A) (A)
                 (A) (A) (A) (A) (A) (A) (A) (A) (A) (A) (A) (A)
                 (A) (A) (A) (A) (A) (A) (A) (A) (A) (A) (A) (A)
                 (A) (A) (A) (A) (A) (A) (A) (A) (A) (A) (A) (A)
                 (A) (A) (A) (A) (A) (A) (A) (A) (A) (A) (A) (A)
                 (A) (A) (A) (A) (A) (A) (A) (A) (A) (A) (A) (A)
                 (A) (A) (A) (A) (A) (A)
 The electronic state is 1-A.
 Alpha  occ. eigenvalues --  -19.25464 -10.34633 -10.29786 -10.29568 -10.27388
 Alpha  occ. eigenvalues --  -10.27168 -10.27097 -10.27051 -10.26905 -10.26829
 Alpha  occ. eigenvalues --  -10.26823  -1.19172  -0.98809  -0.94269  -0.88498
 Alpha  occ. eigenvalues --   -0.86261  -0.84245  -0.75172  -0.73494  -0.72467
 Alpha  occ. eigenvalues --   -0.66816  -0.64576  -0.61584  -0.60249  -0.55515
 Alpha  occ. eigenvalues --   -0.54844  -0.52676  -0.52489  -0.51388  -0.48526
 Alpha  occ. eigenvalues --   -0.47754  -0.44810  -0.43266  -0.42290  -0.39665
 Alpha  occ. eigenvalues --   -0.36312  -0.32729  -0.29368
 Alpha virt. eigenvalues --    0.01736   0.03957   0.04460   0.04754   0.04911
 Alpha virt. eigenvalues --    0.06249   0.06464   0.08327   0.08718   0.08950
 Alpha virt. eigenvalues --    0.10278   0.11533   0.12064   0.13032   0.13824
 Alpha virt. eigenvalues --    0.14997   0.15057   0.15586   0.16058   0.16540
 Alpha virt. eigenvalues --    0.16675   0.17102   0.17518   0.17957   0.18394
 Alpha virt. eigenvalues --    0.18596   0.19072   0.19323   0.20084   0.20673
 Alpha virt. eigenvalues --    0.21685   0.21865   0.22417   0.22569   0.22899
 Alpha virt. eigenvalues --    0.24526   0.25700   0.26050   0.26243   0.26995
 Alpha virt. eigenvalues --    0.27517   0.28780   0.29192   0.29503   0.30122
 Alpha virt. eigenvalues --    0.31174   0.31817   0.32010   0.32685   0.32837
 Alpha virt. eigenvalues --    0.33841   0.34445   0.34980   0.35375   0.35985
 Alpha virt. eigenvalues --    0.36538   0.37793   0.38413   0.39179   0.39649
 Alpha virt. eigenvalues --    0.40471   0.41459   0.41791   0.42921   0.43322
 Alpha virt. eigenvalues --    0.44329   0.44827   0.47161   0.48033   0.48185
 Alpha virt. eigenvalues --    0.51136   0.57506   0.58298   0.60034   0.61306
 Alpha virt. eigenvalues --    0.61947   0.62634   0.65494   0.65824   0.66403
 Alpha virt. eigenvalues --    0.66628   0.67641   0.68110   0.68448   0.70394
 Alpha virt. eigenvalues --    0.70580   0.70907   0.71544   0.72278   0.72652
 Alpha virt. eigenvalues --    0.74732   0.75440   0.76530   0.79137   0.81364
 Alpha virt. eigenvalues --    0.82563   0.83052   0.85833   0.86697   0.87424
 Alpha virt. eigenvalues --    0.89156   0.91024   0.91589   0.92653   0.93349
 Alpha virt. eigenvalues --    0.96056   0.96379   0.97276   0.99730   1.00586
 Alpha virt. eigenvalues --    1.01911   1.02228   1.03994   1.04945   1.05762
 Alpha virt. eigenvalues --    1.06576   1.06603   1.10061   1.11225   1.12573
 Alpha virt. eigenvalues --    1.13904   1.15068   1.18546   1.19520   1.20151
 Alpha virt. eigenvalues --    1.21016   1.23483   1.23841   1.24159   1.25006
 Alpha virt. eigenvalues --    1.28079   1.35984   1.37050   1.42932   1.46459
 Alpha virt. eigenvalues --    1.49156   1.52904   1.57252   1.58018   1.59284
 Alpha virt. eigenvalues --    1.61409   1.62575   1.63069   1.63393   1.69935
 Alpha virt. eigenvalues --    1.70255   1.70947   1.71250   1.73347   1.74319
 Alpha virt. eigenvalues --    1.76949   1.78596   1.80108   1.80910   1.85025
 Alpha virt. eigenvalues --    1.90181   1.90626   1.91850   1.92548   1.93340
 Alpha virt. eigenvalues --    1.95747   1.97550   1.98282   2.00033   2.03533
 Alpha virt. eigenvalues --    2.04016   2.05506   2.07716   2.08719   2.09235
 Alpha virt. eigenvalues --    2.10431   2.11826   2.12780   2.16486   2.19872
 Alpha virt. eigenvalues --    2.24606   2.26397   2.28744   2.30582   2.34836
 Alpha virt. eigenvalues --    2.36881   2.39440   2.43955   2.47233   2.51158
 Alpha virt. eigenvalues --    2.52572   2.53362   2.54877   2.56457   2.57639
 Alpha virt. eigenvalues --    2.66496   2.69897   2.72003   2.75254   2.77443
 Alpha virt. eigenvalues --    2.80757   2.81382   2.84798   2.88510   2.89867
 Alpha virt. eigenvalues --    2.92837   2.93919   2.95222   2.99086   3.01448
 Alpha virt. eigenvalues --    3.02380   3.03762   3.04422   3.06634   3.07293
 Alpha virt. eigenvalues --    3.08528   3.11506   3.17775   3.18522   3.19427
 Alpha virt. eigenvalues --    3.22281   3.24292   3.28052   3.33919   3.35528
 Alpha virt. eigenvalues --    3.38721   3.47308   3.48233   3.52113   3.53894
 Alpha virt. eigenvalues --    3.56066   3.59367   3.74077   3.77262   3.79061
 Alpha virt. eigenvalues --    3.84027   3.88981   3.90924   3.99849   4.12735
 Alpha virt. eigenvalues --    4.28575   4.43518   4.44620   4.46318   4.52277
 Alpha virt. eigenvalues --    4.57598   4.62346   4.94538   4.97395   5.27441
 Alpha virt. eigenvalues --    5.59742   6.15936  23.80320  24.07607  24.15673
 Alpha virt. eigenvalues --   24.17452  24.22023  24.26609  24.41249  24.44467
 Alpha virt. eigenvalues --   24.51703  24.53529  50.20415
          Condensed to atoms (all electrons):
               1          2          3          4          5          6
     1  C   22.851223  -4.936077  -3.025400  -3.859473  -2.324393  -0.234532
     2  C   -4.936077  21.695846  -2.437829  -0.075336  -2.618891  -4.969187
     3  C   -3.025400  -2.437829  10.352206   2.170043  -0.042762  -0.329798
     4  C   -3.859473  -0.075336   2.170043   9.094729  -0.374483  -0.640715
     5  C   -2.324393  -2.618891  -0.042762  -0.374483   9.605039   2.100033
     6  C   -0.234532  -4.969187  -0.329798  -0.640715   2.100033  12.438436
     7  C   -1.619880   0.452270   0.167572  -0.668524   0.229925  -0.208700
     8  O   -0.108866  -0.157760   0.267472  -0.031081   0.009030   0.137922
     9  C    0.990691  -0.717675  -0.784825   0.062035  -0.104296   0.398975
    10  H   -0.146522   0.056557   0.056463   0.498906   0.029364  -0.056100
    11  C   -0.627415  -0.183046   0.293227  -0.044282   0.381696  -1.268199
    12  H   -0.038514  -0.060126  -0.051392   0.011958   0.508149   0.076446
    13  C   -1.232811   0.355471  -0.430803   0.347245  -1.210955  -1.755892
    14  H   -0.041740  -0.032613  -0.090739  -0.014891   0.015719   0.394230
    15  H   -0.040085  -0.019416  -0.064128   0.020806  -0.034673   0.007320
    16  H   -0.193456  -0.059063   0.053057   0.016640  -0.022136   0.048113
    17  H    0.095786  -0.026073  -0.008865  -0.119516   0.022995   0.006189
    18  H   -0.021201   0.031364  -0.010261   0.020915  -0.059326  -0.028755
    19  H    0.041109  -0.035132   0.014185  -0.017909  -0.022536  -0.052718
               7          8          9         10         11         12
     1  C   -1.619880  -0.108866   0.990691  -0.146522  -0.627415  -0.038514
     2  C    0.452270  -0.157760  -0.717675   0.056557  -0.183046  -0.060126
     3  C    0.167572   0.267472  -0.784825   0.056463   0.293227  -0.051392
     4  C   -0.668524  -0.031081   0.062035   0.498906  -0.044282   0.011958
     5  C    0.229925   0.009030  -0.104296   0.029364   0.381696   0.508149
     6  C   -0.208700   0.137922   0.398975  -0.056100  -1.268199   0.076446
     7  C    7.249501  -0.255085   0.156304   0.030461   0.093824  -0.002454
     8  O   -0.255085   8.054667   0.022232  -0.000855   0.003271   0.000704
     9  C    0.156304   0.022232   6.096752  -0.131458  -0.324169   0.050904
    10  H    0.030461  -0.000855  -0.131458   0.499737   0.046568  -0.003335
    11  C    0.093824   0.003271  -0.324169   0.046568   6.681013  -0.118952
    12  H   -0.002454   0.000704   0.050904  -0.003335  -0.118952   0.504922
    13  C   -0.267888   0.100416   0.041383   0.001368   0.845208  -0.008331
    14  H   -0.004164   0.012479   0.004745   0.000517   0.026508   0.001161
    15  H    0.530897  -0.035528  -0.063095   0.003139  -0.001339  -0.000768
    16  H    0.102919   0.257243  -0.002359   0.000662   0.005599  -0.000310
    17  H   -0.107234   0.003123   0.475884  -0.021269   0.000590   0.001694
    18  H   -0.003099  -0.000152   0.002106   0.000820   0.462579  -0.018492
    19  H    0.007280   0.000776  -0.001804  -0.000415  -0.048980   0.000371
              13         14         15         16         17         18
     1  C   -1.232811  -0.041740  -0.040085  -0.193456   0.095786  -0.021201
     2  C    0.355471  -0.032613  -0.019416  -0.059063  -0.026073   0.031364
     3  C   -0.430803  -0.090739  -0.064128   0.053057  -0.008865  -0.010261
     4  C    0.347245  -0.014891   0.020806   0.016640  -0.119516   0.020915
     5  C   -1.210955   0.015719  -0.034673  -0.022136   0.022995  -0.059326
     6  C   -1.755892   0.394230   0.007320   0.048113   0.006189  -0.028755
     7  C   -0.267888  -0.004164   0.530897   0.102919  -0.107234  -0.003099
     8  O    0.100416   0.012479  -0.035528   0.257243   0.003123  -0.000152
     9  C    0.041383   0.004745  -0.063095  -0.002359   0.475884   0.002106
    10  H    0.001368   0.000517   0.003139   0.000662  -0.021269   0.000820
    11  C    0.845208   0.026508  -0.001339   0.005599   0.000590   0.462579
    12  H   -0.008331   0.001161  -0.000768  -0.000310   0.001694  -0.018492
    13  C    9.047366   0.102529   0.018917   0.073431  -0.005634  -0.046503
    14  H    0.102529   0.533839   0.001321  -0.001041  -0.000035   0.000215
    15  H    0.018917   0.001321   0.491609   0.006097  -0.019689  -0.000031
    16  H    0.073431  -0.001041   0.006097   0.441176  -0.001342   0.000061
    17  H   -0.005634  -0.000035  -0.019689  -0.001342   0.510157  -0.000007
    18  H   -0.046503   0.000215  -0.000031   0.000061  -0.000007   0.503239
    19  H    0.455597  -0.017996   0.000079   0.000336  -0.000055  -0.012621
              19
     1  C    0.041109
     2  C   -0.035132
     3  C    0.014185
     4  C   -0.017909
     5  C   -0.022536
     6  C   -0.052718
     7  C    0.007280
     8  O    0.000776
     9  C   -0.001804
    10  H   -0.000415
    11  C   -0.048980
    12  H    0.000371
    13  C    0.455597
    14  H   -0.017996
    15  H    0.000079
    16  H    0.000336
    17  H   -0.000055
    18  H   -0.012621
    19  H    0.500681
 Mulliken charges:
               1
     1  C    0.471557
     2  C   -0.263284
     3  C   -0.097422
     4  C   -0.397066
     5  C   -0.087496
     6  C   -0.063067
     7  C    0.116075
     8  O   -0.280007
     9  C   -0.172328
    10  H    0.135392
    11  C   -0.223703
    12  H    0.146364
    13  C   -0.430115
    14  H    0.109957
    15  H    0.198566
    16  H    0.274375
    17  H    0.193300
    18  H    0.179149
    19  H    0.189752
 Sum of Mulliken charges =  -0.00000
 Mulliken charges with hydrogens summed into heavy atoms:
               1
     1  C    0.471557
     2  C   -0.263284
     3  C   -0.097422
     4  C   -0.261674
     5  C    0.058868
     6  C    0.046890
     7  C    0.314641
     8  O   -0.005632
     9  C    0.020972
    11  C   -0.044553
    13  C   -0.240362
 Electronic spatial extent (au):  <R**2>=           1504.3852
 Charge=             -0.0000 electrons
 Dipole moment (field-independent basis, Debye):
    X=              0.6570    Y=             -0.6333    Z=              1.2679  Tot=              1.5621
 Quadrupole moment (field-independent basis, Debye-Ang):
   XX=            -56.2845   YY=            -57.1559   ZZ=            -66.4993
   XY=              2.6374   XZ=             -2.0040   YZ=              3.6841
 Traceless Quadrupole moment (field-independent basis, Debye-Ang):
   XX=              3.6954   YY=              2.8240   ZZ=             -6.5194
   XY=              2.6374   XZ=             -2.0040   YZ=              3.6841
 Octapole moment (field-independent basis, Debye-Ang**2):
  XXX=              2.2067  YYY=              2.9440  ZZZ=              1.2369  XYY=              4.0822
  XXY=             -5.2388  XXZ=              2.7453  XZZ=             -5.3206  YZZ=              7.6535
  YYZ=             10.3549  XYZ=             -5.9499
 Hexadecapole moment (field-independent basis, Debye-Ang**3):
 XXXX=          -1104.3913 YYYY=           -652.5998 ZZZZ=            -76.9813 XXXY=             14.5507
 XXXZ=             -4.4229 YYYX=              2.2460 YYYZ=             27.2432 ZZZX=             -2.1548
 ZZZY=              4.1775 XXYY=           -308.3126 XXZZ=           -234.4249 YYZZ=           -134.4832
 XXYZ=              8.4658 YYXZ=            -15.4812 ZZXY=            -11.6358
 N-N= 5.628492773014D+02 E-N=-2.200315955436D+03  KE= 4.616926485964D+02
 No NMR shielding tensors so no spin-rotation constants.
 Leave Link  601 at Mon Nov 21 14:54:05 2022, MaxMem= 16106127360 cpu:               4.6 elap:               0.2
 (Enter /opt/ap/G16/B01/g16/l9999.exe)
 1\1\GINC-N10\SP\RwB97XD\6-311++G(d,p)\C10H8O1\ROOT\21-Nov-2022\0\\#P w
 B97XD/6-311++G(d,p) scf=maxcycle=512\\_conf021.gjf nmol_natom 1_19\\0,
 1\C\C,1,1.40879539\C,1,1.42289824,2,117.24956717\C,2,1.41887971,1,119.
 07594714,3,0.16510261,0\C,2,1.42227783,1,117.46262303,3,-179.44443577,
 0\C,1,1.42440336,2,119.00293897,4,179.73740031,0\C,3,1.35510367,1,122.
 33979448,2,-0.36120568,0\O,3,1.37615658,1,115.04370777,2,-179.5931286,
 0\C,4,1.34577659,2,121.30210156,1,0.17277764,0\H,4,0.93023405,2,119.33
 469462,1,-179.75965297,0\C,5,1.34486794,2,122.06073707,1,-0.32265162,0
 \H,5,0.92957893,2,118.96449269,1,179.64671542,0\C,6,1.35980576,1,121.1
 112438,2,0.11625163,0\H,6,0.92999796,1,119.43671105,2,-179.87270235,0\
 H,7,0.93052813,3,120.28038366,1,-179.76477098,0\H,8,0.81991994,3,109.4
 8785721,1,-75.,0\H,9,0.93027331,4,119.71917791,2,179.60144151,0\H,11,0
 .92987565,5,119.70372857,2,-179.69197286,0\H,13,0.93032717,6,120.14524
 692,1,179.85241379,0\\Version=ES64L-G16RevB.01\State=1-A\HF=-460.88702
 35\RMSD=7.688e-09\Dipole=-0.1937427,-0.4957292,0.3072793\Quadrupole=3.
 5817804,-4.776144,1.1943636,-0.7811974,1.6178273,3.0872441\PG=C01 [X(C
 10H8O1)]\\@


 MANHOOD BEGINS BY TRYING TO SHAVE FACE,
 AND ENDS BY TRYING TO SAVE FACE.
 Job cpu time:       0 days  0 hours 12 minutes 41.8 seconds.
 Elapsed time:       0 days  0 hours  0 minutes 23.9 seconds.
 File lengths (MBytes):  RWF=     51 Int=      0 D2E=      0 Chk=      6 Scr=      1
 Normal termination of Gaussian 16 at Mon Nov 21 14:54:05 2022.
