 Entering Gaussian System, Link 0=g16
 Input=_conf035.gjf
 Output=_conf035.log
 Initial command:
 /opt/ap/G16/B01/g16/l1.exe "/tmp2/scr/Gau-24943.inp" -scrdir="/tmp2/scr/"
 Entering Link 1 = /opt/ap/G16/B01/g16/l1.exe PID=     24944.
  
 Copyright (c) 1988-2017, Gaussian, Inc.  All Rights Reserved.
  
 This is part of the Gaussian(R) 16 program.  It is based on
 the Gaussian(R) 09 system (copyright 2009, Gaussian, Inc.),
 the Gaussian(R) 03 system (copyright 2003, Gaussian, Inc.),
 the Gaussian(R) 98 system (copyright 1998, Gaussian, Inc.),
 the Gaussian(R) 94 system (copyright 1995, Gaussian, Inc.),
 the Gaussian 92(TM) system (copyright 1992, Gaussian, Inc.),
 the Gaussian 90(TM) system (copyright 1990, Gaussian, Inc.),
 the Gaussian 88(TM) system (copyright 1988, Gaussian, Inc.),
 the Gaussian 86(TM) system (copyright 1986, Carnegie Mellon
 University), and the Gaussian 82(TM) system (copyright 1983,
 Carnegie Mellon University). Gaussian is a federally registered
 trademark of Gaussian, Inc.
  
 This software contains proprietary and confidential information,
 including trade secrets, belonging to Gaussian, Inc.
  
 This software is provided under written license and may be
 used, copied, transmitted, or stored only in accord with that
 written license.
  
 The following legend is applicable only to US Government
 contracts under FAR:
  
                    RESTRICTED RIGHTS LEGEND
  
 Use, reproduction and disclosure by the US Government is
 subject to restrictions as set forth in subparagraphs (a)
 and (c) of the Commercial Computer Software - Restricted
 Rights clause in FAR 52.227-19.
  
 Gaussian, Inc.
 340 Quinnipiac St., Bldg. 40, Wallingford CT 06492
  
  
 ---------------------------------------------------------------
 Warning -- This program may not be used in any manner that
 competes with the business of Gaussian, Inc. or will provide
 assistance to any competitor of Gaussian, Inc.  The licensee
 of this program is prohibited from giving any competitor of
 Gaussian, Inc. access to this program.  By using this program,
 the user acknowledges that Gaussian, Inc. is engaged in the
 business of creating and licensing software in the field of
 computational chemistry and represents and warrants to the
 licensee that it is not a competitor of Gaussian, Inc. and that
 it will not use this program in any manner prohibited above.
 ---------------------------------------------------------------
  

 Cite this work as:
 Gaussian 16, Revision B.01,
 M. J. Frisch, G. W. Trucks, H. B. Schlegel, G. E. Scuseria, 
 M. A. Robb, J. R. Cheeseman, G. Scalmani, V. Barone, 
 G. A. Petersson, H. Nakatsuji, X. Li, M. Caricato, A. V. Marenich, 
 J. Bloino, B. G. Janesko, R. Gomperts, B. Mennucci, H. P. Hratchian, 
 J. V. Ortiz, A. F. Izmaylov, J. L. Sonnenberg, D. Williams-Young, 
 F. Ding, F. Lipparini, F. Egidi, J. Goings, B. Peng, A. Petrone, 
 T. Henderson, D. Ranasinghe, V. G. Zakrzewski, J. Gao, N. Rega, 
 G. Zheng, W. Liang, M. Hada, M. Ehara, K. Toyota, R. Fukuda, 
 J. Hasegawa, M. Ishida, T. Nakajima, Y. Honda, O. Kitao, H. Nakai, 
 T. Vreven, K. Throssell, J. A. Montgomery, Jr., J. E. Peralta, 
 F. Ogliaro, M. J. Bearpark, J. J. Heyd, E. N. Brothers, K. N. Kudin, 
 V. N. Staroverov, T. A. Keith, R. Kobayashi, J. Normand, 
 K. Raghavachari, A. P. Rendell, J. C. Burant, S. S. Iyengar, 
 J. Tomasi, M. Cossi, J. M. Millam, M. Klene, C. Adamo, R. Cammi, 
 J. W. Ochterski, R. L. Martin, K. Morokuma, O. Farkas, 
 J. B. Foresman, and D. J. Fox, Gaussian, Inc., Wallingford CT, 2016.
 
 ******************************************
 Gaussian 16:  ES64L-G16RevB.01 20-Dec-2017
                21-Nov-2022 
 ******************************************
 %nprocshared=32
 Will use up to   32 processors via shared memory.
 %mem=120GB
 %chk=_conf035.chk
 ----------------------------------------
 #P wB97XD/6-311++G(d,p) scf=maxcycle=512
 ----------------------------------------
 1/38=1,172=1/1;
 2/12=2,17=6,18=5,40=1/2;
 3/5=4,6=6,7=1111,11=2,25=1,30=1,74=-58/1,2,3;
 4//1;
 5/5=2,7=512,38=5/2;
 6/7=2,8=2,9=2,10=2,28=1/1;
 99/5=1,9=1/99;
 Leave Link    1 at Mon Nov 21 14:54:48 2022, MaxMem= 16106127360 cpu:               4.7 elap:               0.2
 (Enter /opt/ap/G16/B01/g16/l101.exe)
 ----------------------------
 _conf035.gjf nmol_natom 1_19
 ----------------------------
 Symbolic Z-matrix:
 Charge =  0 Multiplicity = 1
 C
 C                    1     1.4088 
 C                    1     1.4229   2     117.24957 
 C                    2     1.41888  1     119.07595  3     0.1651   0
 C                    2     1.42228  1     117.46262  3    -179.44444  0
 C                    1     1.4244   2     119.00294  4     179.7374  0
 C                    3     1.3551   1     122.33979  2    -0.36121  0
 O                    3     1.37616  1     115.04371  2    -179.59313  0
 C                    4     1.34578  2     121.3021  1     0.17278  0
 H                    4     0.93023  2     119.33469  1    -179.75965  0
 C                    5     1.34487  2     122.06074  1    -0.32265  0
 H                    5     0.92958  2     118.96449  1     179.64672  0
 C                    6     1.35981  1     121.11124  2     0.11625  0
 H                    6     0.93     1     119.43671  2    -179.8727  0
 H                    7     0.93053  3     120.28038  1    -179.76477  0
 H                    8     0.81992  3     109.48786  1    -5.       0
 H                    9     0.93027  4     119.71918  2     179.60144  0
 H                    11    0.92988  5     119.70373  2    -179.69197  0
 H                    13    0.93033  6     120.14525  1     179.85241  0
 
 ITRead=  0  0  0  0  0  0  0  0  0  0  0  0  0  0  0  0  0  0  0
 MicOpt= -1 -1 -1 -1 -1 -1 -1 -1 -1 -1 -1 -1 -1 -1 -1 -1 -1 -1 -1
 NAtoms=     19 NQM=       19 NQMF=       0 NMMI=      0 NMMIF=      0
                NMic=       0 NMicF=      0.
                    Isotopes and Nuclear Properties:
 (Nuclear quadrupole moments (NQMom) in fm**2, nuclear magnetic moments (NMagM)
  in nuclear magnetons)

  Atom         1           2           3           4           5           6           7           8           9          10
 IAtWgt=          12          12          12          12          12          12          12          16          12           1
 AtmWgt=  12.0000000  12.0000000  12.0000000  12.0000000  12.0000000  12.0000000  12.0000000  15.9949146  12.0000000   1.0078250
 NucSpn=           0           0           0           0           0           0           0           0           0           1
 AtZEff=  -0.0000000  -0.0000000  -0.0000000  -0.0000000  -0.0000000  -0.0000000  -0.0000000  -0.0000000  -0.0000000  -0.0000000
 NQMom=    0.0000000   0.0000000   0.0000000   0.0000000   0.0000000   0.0000000   0.0000000   0.0000000   0.0000000   0.0000000
 NMagM=    0.0000000   0.0000000   0.0000000   0.0000000   0.0000000   0.0000000   0.0000000   0.0000000   0.0000000   2.7928460
 AtZNuc=   6.0000000   6.0000000   6.0000000   6.0000000   6.0000000   6.0000000   6.0000000   8.0000000   6.0000000   1.0000000

  Atom        11          12          13          14          15          16          17          18          19
 IAtWgt=          12           1          12           1           1           1           1           1           1
 AtmWgt=  12.0000000   1.0078250  12.0000000   1.0078250   1.0078250   1.0078250   1.0078250   1.0078250   1.0078250
 NucSpn=           0           1           0           1           1           1           1           1           1
 AtZEff=  -0.0000000  -0.0000000  -0.0000000  -0.0000000  -0.0000000  -0.0000000  -0.0000000  -0.0000000  -0.0000000
 NQMom=    0.0000000   0.0000000   0.0000000   0.0000000   0.0000000   0.0000000   0.0000000   0.0000000   0.0000000
 NMagM=    0.0000000   2.7928460   0.0000000   2.7928460   2.7928460   2.7928460   2.7928460   2.7928460   2.7928460
 AtZNuc=   6.0000000   1.0000000   6.0000000   1.0000000   1.0000000   1.0000000   1.0000000   1.0000000   1.0000000
 Leave Link  101 at Mon Nov 21 14:54:48 2022, MaxMem= 16106127360 cpu:               5.5 elap:               0.2
 (Enter /opt/ap/G16/B01/g16/l202.exe)
                          Input orientation:                          
 ---------------------------------------------------------------------
 Center     Atomic      Atomic             Coordinates (Angstroms)
 Number     Number       Type             X           Y           Z
 ---------------------------------------------------------------------
      1          6           0        0.000000    0.000000    0.000000
      2          6           0        0.000000    0.000000    1.408795
      3          6           0        1.264986    0.000000   -0.651498
      4          6           0        1.240062    0.003573    2.098326
      5          6           0       -1.261945   -0.012237    2.064707
      6          6           0       -1.245741   -0.009299   -0.690628
      7          6           0        2.433644    0.007218    0.034427
      8          8           0        1.212032    0.008854   -2.026607
      9          6           0        2.409936    0.010412    1.433147
     10          1           0        1.244276    0.000184    3.028545
     11          6           0       -2.421000   -0.017057    1.382624
     12          1           0       -1.286266   -0.017488    2.993953
     13          6           0       -2.424704   -0.015738   -0.013076
     14          1           0       -1.252769   -0.011151   -1.620598
     15          1           0        3.245045    0.010306   -0.421097
     16          1           0        0.431855   -0.054437   -2.270711
     17          1           0        3.210137    0.018260    1.907515
     18          1           0       -3.227740   -0.020753    1.845035
     19          1           0       -3.230632   -0.019714   -0.477804
 ---------------------------------------------------------------------
                    Distance matrix (angstroms):
                    1          2          3          4          5
     1  C    0.000000
     2  C    1.408795   0.000000
     3  C    1.422898   2.417643   0.000000
     4  C    2.437363   1.418880   2.749940   0.000000
     5  C    2.419849   1.422278   3.709892   2.502283   0.000000
     6  C    1.424403   2.441216   2.511049   3.735994   2.755385
     7  C    2.433898   2.794917   1.355104   2.384184   4.216609
     8  O    2.361406   3.642951   1.376157   4.125032   4.781198
     9  C    2.803892   2.410081   2.378396   1.345777   3.725867
    10  H    3.274188   2.042501   3.680101   0.930234   2.685197
    11  C    2.788042   2.421201   4.210040   3.730420   1.344868
    12  H    3.258610   2.041448   4.449551   2.680471   0.929579
    13  C    2.424790   2.810899   3.744548   4.229527   2.381009
    14  H    2.048388   3.278228   2.697845   4.477144   3.685317
    15  H    3.272269   3.725443   1.993445   3.219859   5.147104
    16  H    2.312053   3.705162   1.821790   4.443540   4.654738
    17  H    3.734157   3.248697   3.214420   1.979348   4.474947
    18  H    3.717915   3.257153   5.139815   4.475043   1.978050
    19  H    3.265834   3.741207   4.499015   5.159854   3.215610
                    6          7          8          9         10
     6  C    0.000000
     7  C    3.750180   0.000000
     8  O    2.797466   2.395871   0.000000
     9  C    4.227858   1.398925   3.661267   0.000000
    10  H    4.475771   3.221706   5.055262   1.975895   0.000000
    11  C    2.383205   5.038431   4.982213   4.831278   4.017910
    12  H    3.684813   4.753644   5.607870   4.012331   2.530840
    13  C    1.359806   4.858634   4.157013   5.046383   4.765829
    14  H    0.929998   4.040926   2.498097   4.768777   5.277300
    15  H    4.498910   0.930528   2.590522   2.033624   3.987882
    16  H    2.305000   3.053624   0.819920   4.199473   5.361447
    17  H    5.158096   2.027689   4.412463   0.930273   2.263105
    18  H    3.218391   5.943934   5.890846   5.652788   4.626021
    19  H    1.996295   5.687453   4.704984   5.955556   5.685040
                   11         12         13         14         15
    11  C    0.000000
    12  H    1.970788   0.000000
    13  C    1.395705   3.215317   0.000000
    14  H    3.222443   4.614677   1.989366   0.000000
    15  H    5.946277   5.674162   5.684470   4.655061   0.000000
    16  H    4.635410   5.538049   3.641200   1.806233   3.367388
    17  H    5.655657   4.625934   5.953256   5.689110   2.328887
    18  H    0.929876   2.255958   2.024221   3.988887   6.858080
    19  H    2.028966   3.979153   0.930327   2.284293   6.475995
                   16         17         18         19
    16  H    0.000000
    17  H    5.018138   0.000000
    18  H    5.507552   6.438299   0.000000
    19  H    4.077932   6.868384   2.322841   0.000000
 Stoichiometry    C10H8O
 Framework group  C1[X(C10H8O)]
 Deg. of freedom    51
 Full point group                 C1      NOp   1
 Largest Abelian subgroup         C1      NOp   1
 Largest concise Abelian subgroup C1      NOp   1
                         Standard orientation:                         
 ---------------------------------------------------------------------
 Center     Atomic      Atomic             Coordinates (Angstroms)
 Number     Number       Type             X           Y           Z
 ---------------------------------------------------------------------
      1          6           0        0.025893    0.425413   -0.003646
      2          6           0        0.325568   -0.951140   -0.003336
      3          6           0       -1.348710    0.792922    0.003039
      4          6           0       -0.739439   -1.888673   -0.000063
      5          6           0        1.698202   -1.323591    0.002232
      6          6           0        1.096246    1.365234   -0.001224
      7          6           0       -2.344734   -0.125904    0.002282
      8          8           0       -1.589525    2.147811   -0.006402
      9          6           0       -2.024054   -1.487574   -0.000733
     10          1           0       -0.545666   -2.798494    0.003554
     11          6           0        2.685648   -0.410565    0.000646
     12          1           0        1.919661   -2.226390    0.007556
     13          6           0        2.392371    0.953978   -0.001001
     14          1           0        0.905302    2.275418    0.000386
     15          1           0       -3.234468    0.146594    0.003473
     16          1           0       -0.878808    2.552369    0.052622
     17          1           0       -2.705065   -2.121310   -0.004157
     18          1           0        3.572297   -0.690784    0.000088
     19          1           0        3.081008    1.579507   -0.001478
 ---------------------------------------------------------------------
 Rotational constants (GHZ):           2.0027737           1.1603626           0.7347047
 Leave Link  202 at Mon Nov 21 14:54:48 2022, MaxMem= 16106127360 cpu:               0.3 elap:               0.0
 (Enter /opt/ap/G16/B01/g16/l301.exe)
 Standard basis: 6-311++G(d,p) (5D, 7F)
 Ernie: Thresh=  0.10000D-02 Tol=  0.10000D-05 Strict=F.
 There are   309 symmetry adapted cartesian basis functions of A   symmetry.
 There are   298 symmetry adapted basis functions of A   symmetry.
   298 basis functions,   468 primitive gaussians,   309 cartesian basis functions
    38 alpha electrons       38 beta electrons
       nuclear repulsion energy       563.5208652956 Hartrees.
 IExCor= 4639 DFT=T Ex+Corr=wB97XD ExCW=0 ScaHFX=  1.000000
 ScaDFX=  1.000000  1.000000  1.000000  1.000000 ScalE2=  1.000000  1.000000
 IRadAn=      5 IRanWt=     -1 IRanGd=            0 ICorTp=0 IEmpDi=121
 HFx  wShort=  0.000000 wLong=  0.200000 cFull=  0.222036 cShort=  0.000000 cLong=  0.777964
 DFx  wShort=  0.000000 wLong=  0.200000 cFull=  0.000000 cShort=  0.000000 cLong=  1.000000
 NAtoms=   19 NActive=   19 NUniq=   19 SFac= 1.00D+00 NAtFMM=   60 NAOKFM=F Big=F
 Integral buffers will be    131072 words long.
 Raffenetti 2 integral format.
 Two-electron integral symmetry is turned on.
 R6Disp:  Grimme-D2 Dispersion energy=       -0.0101907628 Hartrees.
 Nuclear repulsion after empirical dispersion term =      563.5106745329 Hartrees.
 Leave Link  301 at Mon Nov 21 14:54:48 2022, MaxMem= 16106127360 cpu:               1.2 elap:               0.0
 (Enter /opt/ap/G16/B01/g16/l302.exe)
 NPDir=0 NMtPBC=     1 NCelOv=     1 NCel=       1 NClECP=     1 NCelD=      1
         NCelK=      1 NCelE2=     1 NClLst=     1 CellRange=     0.0.
 One-electron integrals computed using PRISM.
 One-electron integral symmetry used in STVInt
 NBasis=   298 RedAO= T EigKep=  1.85D-06  NBF=   298
 NBsUse=   295 1.00D-06 EigRej=  8.61D-07 NBFU=   295
 Precomputing XC quadrature grid using
 IXCGrd= 4 IRadAn=           5 IRanWt=          -1 IRanGd=           0 AccXCQ= 0.00D+00.
 Generated NRdTot=       0 NPtTot=           0 NUsed=           0 NTot=          32
 NSgBfM=   309   309   309   309   309 MxSgAt=    19 MxSgA2=    19.
 Leave Link  302 at Mon Nov 21 14:54:48 2022, MaxMem= 16106127360 cpu:               6.3 elap:               0.2
 (Enter /opt/ap/G16/B01/g16/l303.exe)
 DipDrv:  MaxL=1.
 Leave Link  303 at Mon Nov 21 14:54:48 2022, MaxMem= 16106127360 cpu:               1.4 elap:               0.0
 (Enter /opt/ap/G16/B01/g16/l401.exe)
 ExpMin= 3.60D-02 ExpMax= 8.59D+03 ExpMxC= 1.30D+03 IAcc=3 IRadAn=         5 AccDes= 0.00D+00
 Harris functional with IExCor= 4639 and IRadAn=       5 diagonalized for initial guess.
 HarFok:  IExCor= 4639 AccDes= 0.00D+00 IRadAn=         5 IDoV= 1 UseB2=F ITyADJ=14
 ICtDFT=  3500011 ScaDFX=  1.000000  1.000000  1.000000  1.000000
 FoFCou: FMM=F IPFlag=           0 FMFlag=      100000 FMFlg1=           0
         NFxFlg=           0 DoJE=T BraDBF=F KetDBF=T FulRan=T
         wScrn=  0.000000 ICntrl=       500 IOpCl=  0 I1Cent=   200000004 NGrid=           0
         NMat0=    1 NMatS0=      1 NMatT0=    0 NMatD0=    1 NMtDS0=    0 NMtDT0=    0
 Petite list used in FoFCou.
 Harris En= -440.613591844610    
 JPrj=0 DoOrth=F DoCkMO=F.
 Leave Link  401 at Mon Nov 21 14:54:49 2022, MaxMem= 16106127360 cpu:              16.2 elap:               0.5
 (Enter /opt/ap/G16/B01/g16/l502.exe)
 Integral symmetry usage will be decided dynamically.
 Closed shell SCF:
 Using DIIS extrapolation, IDIIS=  1040.
 NGot= 16106127360 LenX= 16105923535 LenY= 16105827613
 Requested convergence on RMS density matrix=1.00D-08 within 512 cycles.
 Requested convergence on MAX density matrix=1.00D-06.
 Requested convergence on             energy=1.00D-06.
 No special actions if energy rises.
 Fock matrices will be formed incrementally for  20 cycles.

 Cycle   1  Pass 1  IDiag  1:
 FoFJK:  IHMeth= 1 ICntrl=       0 DoSepK=T KAlg= 0 I1Cent=           0 FoldK=F
 IRaf=         1 NMat=       1 IRICut=       1 DoRegI=T DoRafI=F ISym2E= 0 IDoP0=0 IntGTp=1.
 FoFCou: FMM=F IPFlag=           0 FMFlag=      100000 FMFlg1=           0
         NFxFlg=           0 DoJE=T BraDBF=F KetDBF=F FulRan=T
         wScrn=  0.000000 ICntrl=       500 IOpCl=  0 I1Cent=           0 NGrid=           0
         NMat0=    1 NMatS0=      1 NMatT0=    0 NMatD0=    1 NMtDS0=    0 NMtDT0=    0
 Symmetry not used in FoFCou.
 E= -460.744407099173    
 DIIS: error= 6.11D-02 at cycle   1 NSaved=   1.
 NSaved= 1 IEnMin= 1 EnMin= -460.744407099173     IErMin= 1 ErrMin= 6.11D-02
 ErrMax= 6.11D-02  0.00D+00 EMaxC= 1.00D-01 BMatC= 9.63D-01 BMatP= 9.63D-01
 IDIUse=3 WtCom= 3.89D-01 WtEn= 6.11D-01
 Coeff-Com:  0.100D+01
 Coeff-En:   0.100D+01
 Coeff:      0.100D+01
 Gap=     0.333 Goal=   None    Shift=    0.000
 GapD=    0.333 DampG=1.000 DampE=0.500 DampFc=0.5000 IDamp=-1.
 Damping current iteration by 5.00D-01
 RMSDP=1.60D-02 MaxDP=1.31D+00              OVMax= 1.61D-01

 Cycle   2  Pass 1  IDiag  1:
 RMSU=  4.68D-03    CP:  9.10D-01
 E= -460.814272013352     Delta-E=       -0.069864914179 Rises=F Damp=T
 DIIS: error= 3.07D-02 at cycle   2 NSaved=   2.
 NSaved= 2 IEnMin= 2 EnMin= -460.814272013352     IErMin= 2 ErrMin= 3.07D-02
 ErrMax= 3.07D-02  0.00D+00 EMaxC= 1.00D-01 BMatC= 2.08D-01 BMatP= 9.63D-01
 IDIUse=3 WtCom= 6.93D-01 WtEn= 3.07D-01
 Coeff-Com: -0.689D+00 0.169D+01
 Coeff-En:   0.000D+00 0.100D+01
 Coeff:     -0.477D+00 0.148D+01
 Gap=     0.323 Goal=   None    Shift=    0.000
 RMSDP=1.51D-02 MaxDP=1.83D+00 DE=-6.99D-02 OVMax= 1.56D-01

 Cycle   3  Pass 1  IDiag  1:
 RMSU=  4.13D-03    CP:  7.09D-01  1.25D+00
 E= -460.860231956491     Delta-E=       -0.045959943139 Rises=F Damp=F
 DIIS: error= 1.35D-02 at cycle   3 NSaved=   3.
 NSaved= 3 IEnMin= 3 EnMin= -460.860231956491     IErMin= 3 ErrMin= 1.35D-02
 ErrMax= 1.35D-02  0.00D+00 EMaxC= 1.00D-01 BMatC= 3.10D-02 BMatP= 2.08D-01
 IDIUse=3 WtCom= 8.65D-01 WtEn= 1.35D-01
 Coeff-Com: -0.354D+00 0.754D+00 0.600D+00
 Coeff-En:   0.000D+00 0.000D+00 0.100D+01
 Coeff:     -0.306D+00 0.652D+00 0.654D+00
 Gap=     0.312 Goal=   None    Shift=    0.000
 RMSDP=1.87D-03 MaxDP=7.41D-02 DE=-4.60D-02 OVMax= 7.10D-02

 Cycle   4  Pass 1  IDiag  1:
 RMSU=  1.18D-03    CP:  7.10D-01  1.43D+00  7.15D-01
 E= -460.887346785814     Delta-E=       -0.027114829323 Rises=F Damp=F
 DIIS: error= 2.21D-03 at cycle   4 NSaved=   4.
 NSaved= 4 IEnMin= 4 EnMin= -460.887346785814     IErMin= 4 ErrMin= 2.21D-03
 ErrMax= 2.21D-03  0.00D+00 EMaxC= 1.00D-01 BMatC= 1.38D-03 BMatP= 3.10D-02
 IDIUse=3 WtCom= 9.78D-01 WtEn= 2.21D-02
 Coeff-Com: -0.116D+00 0.248D+00 0.300D+00 0.567D+00
 Coeff-En:   0.000D+00 0.000D+00 0.000D+00 0.100D+01
 Coeff:     -0.113D+00 0.243D+00 0.294D+00 0.577D+00
 Gap=     0.303 Goal=   None    Shift=    0.000
 RMSDP=4.37D-04 MaxDP=1.55D-02 DE=-2.71D-02 OVMax= 1.03D-02

 Cycle   5  Pass 1  IDiag  1:
 RMSU=  2.62D-04    CP:  7.07D-01  1.44D+00  7.67D-01  8.18D-01
 E= -460.888596207025     Delta-E=       -0.001249421211 Rises=F Damp=F
 DIIS: error= 3.96D-04 at cycle   5 NSaved=   5.
 NSaved= 5 IEnMin= 5 EnMin= -460.888596207025     IErMin= 5 ErrMin= 3.96D-04
 ErrMax= 3.96D-04  0.00D+00 EMaxC= 1.00D-01 BMatC= 1.74D-05 BMatP= 1.38D-03
 IDIUse=3 WtCom= 9.96D-01 WtEn= 3.96D-03
 Coeff-Com:  0.127D-01-0.267D-01 0.294D-02 0.127D+00 0.884D+00
 Coeff-En:   0.000D+00 0.000D+00 0.000D+00 0.000D+00 0.100D+01
 Coeff:      0.126D-01-0.266D-01 0.293D-02 0.127D+00 0.884D+00
 Gap=     0.304 Goal=   None    Shift=    0.000
 RMSDP=1.37D-04 MaxDP=7.94D-03 DE=-1.25D-03 OVMax= 3.45D-03

 Cycle   6  Pass 1  IDiag  1:
 RMSU=  1.24D-04    CP:  7.07D-01  1.44D+00  7.79D-01  8.43D-01  1.02D+00
 E= -460.888623273124     Delta-E=       -0.000027066099 Rises=F Damp=F
 DIIS: error= 2.27D-04 at cycle   6 NSaved=   6.
 NSaved= 6 IEnMin= 6 EnMin= -460.888623273124     IErMin= 6 ErrMin= 2.27D-04
 ErrMax= 2.27D-04  0.00D+00 EMaxC= 1.00D-01 BMatC= 4.47D-06 BMatP= 1.74D-05
 IDIUse=3 WtCom= 9.98D-01 WtEn= 2.27D-03
 Coeff-Com:  0.170D-01-0.363D-01-0.272D-01-0.643D-02 0.368D+00 0.685D+00
 Coeff-En:   0.000D+00 0.000D+00 0.000D+00 0.000D+00 0.000D+00 0.100D+01
 Coeff:      0.169D-01-0.362D-01-0.271D-01-0.642D-02 0.367D+00 0.686D+00
 Gap=     0.304 Goal=   None    Shift=    0.000
 RMSDP=8.20D-05 MaxDP=5.59D-03 DE=-2.71D-05 OVMax= 1.08D-03

 Cycle   7  Pass 1  IDiag  1:
 RMSU=  4.56D-05    CP:  7.07D-01  1.44D+00  7.82D-01  8.55D-01  1.13D+00
                    CP:  9.19D-01
 E= -460.888629693233     Delta-E=       -0.000006420109 Rises=F Damp=F
 DIIS: error= 8.39D-05 at cycle   7 NSaved=   7.
 NSaved= 7 IEnMin= 7 EnMin= -460.888629693233     IErMin= 7 ErrMin= 8.39D-05
 ErrMax= 8.39D-05  0.00D+00 EMaxC= 1.00D-01 BMatC= 3.40D-07 BMatP= 4.47D-06
 IDIUse=1 WtCom= 1.00D+00 WtEn= 0.00D+00
 Coeff-Com:  0.119D-02-0.254D-02-0.305D-02-0.152D-01-0.601D-01 0.943D-01
 Coeff-Com:  0.985D+00
 Coeff:      0.119D-02-0.254D-02-0.305D-02-0.152D-01-0.601D-01 0.943D-01
 Coeff:      0.985D+00
 Gap=     0.304 Goal=   None    Shift=    0.000
 RMSDP=1.82D-05 MaxDP=1.96D-03 DE=-6.42D-06 OVMax= 8.23D-04

 Cycle   8  Pass 1  IDiag  1:
 RMSU=  1.15D-05    CP:  7.07D-01  1.45D+00  7.82D-01  8.55D-01  1.15D+00
                    CP:  9.62D-01  1.16D+00
 E= -460.888630761711     Delta-E=       -0.000001068478 Rises=F Damp=F
 DIIS: error= 3.17D-05 at cycle   8 NSaved=   8.
 NSaved= 8 IEnMin= 8 EnMin= -460.888630761711     IErMin= 8 ErrMin= 3.17D-05
 ErrMax= 3.17D-05  0.00D+00 EMaxC= 1.00D-01 BMatC= 1.05D-07 BMatP= 3.40D-07
 IDIUse=1 WtCom= 1.00D+00 WtEn= 0.00D+00
 Coeff-Com: -0.217D-02 0.467D-02 0.358D-02-0.406D-02-0.849D-01-0.771D-01
 Coeff-Com:  0.425D+00 0.735D+00
 Coeff:     -0.217D-02 0.467D-02 0.358D-02-0.406D-02-0.849D-01-0.771D-01
 Coeff:      0.425D+00 0.735D+00
 Gap=     0.304 Goal=   None    Shift=    0.000
 RMSDP=1.04D-05 MaxDP=7.65D-04 DE=-1.07D-06 OVMax= 2.64D-04

 Cycle   9  Pass 1  IDiag  1:
 RMSU=  4.08D-06    CP:  7.07D-01  1.45D+00  7.83D-01  8.53D-01  1.16D+00
                    CP:  1.01D+00  1.25D+00  1.03D+00
 E= -460.888630976194     Delta-E=       -0.000000214482 Rises=F Damp=F
 DIIS: error= 1.31D-05 at cycle   9 NSaved=   9.
 NSaved= 9 IEnMin= 9 EnMin= -460.888630976194     IErMin= 9 ErrMin= 1.31D-05
 ErrMax= 1.31D-05  0.00D+00 EMaxC= 1.00D-01 BMatC= 7.43D-09 BMatP= 1.05D-07
 IDIUse=1 WtCom= 1.00D+00 WtEn= 0.00D+00
 Coeff-Com: -0.652D-03 0.140D-02 0.138D-02 0.158D-02-0.115D-01-0.355D-01
 Coeff-Com: -0.518D-01 0.113D+00 0.982D+00
 Coeff:     -0.652D-03 0.140D-02 0.138D-02 0.158D-02-0.115D-01-0.355D-01
 Coeff:     -0.518D-01 0.113D+00 0.982D+00
 Gap=     0.304 Goal=   None    Shift=    0.000
 RMSDP=3.63D-06 MaxDP=4.44D-04 DE=-2.14D-07 OVMax= 1.53D-04

 Cycle  10  Pass 1  IDiag  1:
 RMSU=  1.66D-06    CP:  7.07D-01  1.45D+00  7.83D-01  8.53D-01  1.16D+00
                    CP:  1.01D+00  1.26D+00  1.20D+00  1.25D+00
 E= -460.888631010059     Delta-E=       -0.000000033866 Rises=F Damp=F
 DIIS: error= 6.33D-06 at cycle  10 NSaved=  10.
 NSaved=10 IEnMin=10 EnMin= -460.888631010059     IErMin=10 ErrMin= 6.33D-06
 ErrMax= 6.33D-06  0.00D+00 EMaxC= 1.00D-01 BMatC= 1.19D-09 BMatP= 7.43D-09
 IDIUse=1 WtCom= 1.00D+00 WtEn= 0.00D+00
 Coeff-Com:  0.109D-03-0.239D-03-0.712D-04 0.993D-03 0.758D-02 0.651D-03
 Coeff-Com: -0.558D-01-0.807D-01 0.231D+00 0.896D+00
 Coeff:      0.109D-03-0.239D-03-0.712D-04 0.993D-03 0.758D-02 0.651D-03
 Coeff:     -0.558D-01-0.807D-01 0.231D+00 0.896D+00
 Gap=     0.304 Goal=   None    Shift=    0.000
 RMSDP=1.07D-06 MaxDP=5.53D-05 DE=-3.39D-08 OVMax= 4.76D-05

 Cycle  11  Pass 1  IDiag  1:
 RMSU=  5.65D-07    CP:  7.07D-01  1.45D+00  7.83D-01  8.53D-01  1.15D+00
                    CP:  1.01D+00  1.26D+00  1.22D+00  1.38D+00  1.12D+00
 E= -460.888631014259     Delta-E=       -0.000000004200 Rises=F Damp=F
 DIIS: error= 1.60D-06 at cycle  11 NSaved=  11.
 NSaved=11 IEnMin=11 EnMin= -460.888631014259     IErMin=11 ErrMin= 1.60D-06
 ErrMax= 1.60D-06  0.00D+00 EMaxC= 1.00D-01 BMatC= 2.57D-10 BMatP= 1.19D-09
 IDIUse=1 WtCom= 1.00D+00 WtEn= 0.00D+00
 Coeff-Com:  0.140D-03-0.301D-03-0.242D-03 0.107D-03 0.429D-02 0.508D-02
 Coeff-Com: -0.913D-02-0.482D-01-0.795D-01 0.316D+00 0.811D+00
 Coeff:      0.140D-03-0.301D-03-0.242D-03 0.107D-03 0.429D-02 0.508D-02
 Coeff:     -0.913D-02-0.482D-01-0.795D-01 0.316D+00 0.811D+00
 Gap=     0.304 Goal=   None    Shift=    0.000
 RMSDP=4.29D-07 MaxDP=2.00D-05 DE=-4.20D-09 OVMax= 1.78D-05

 Cycle  12  Pass 1  IDiag  1:
 RMSU=  2.03D-07    CP:  7.07D-01  1.45D+00  7.83D-01  8.53D-01  1.16D+00
                    CP:  1.01D+00  1.27D+00  1.23D+00  1.41D+00  1.18D+00
                    CP:  1.04D+00
 E= -460.888631014970     Delta-E=       -0.000000000711 Rises=F Damp=F
 DIIS: error= 7.40D-07 at cycle  12 NSaved=  12.
 NSaved=12 IEnMin=12 EnMin= -460.888631014970     IErMin=12 ErrMin= 7.40D-07
 ErrMax= 7.40D-07  0.00D+00 EMaxC= 1.00D-01 BMatC= 1.62D-11 BMatP= 2.57D-10
 IDIUse=1 WtCom= 1.00D+00 WtEn= 0.00D+00
 Coeff-Com: -0.860D-05 0.192D-04-0.282D-05-0.125D-03-0.822D-03-0.149D-03
 Coeff-Com:  0.802D-02 0.108D-01-0.388D-01-0.117D+00-0.291D-01 0.117D+01
 Coeff:     -0.860D-05 0.192D-04-0.282D-05-0.125D-03-0.822D-03-0.149D-03
 Coeff:      0.802D-02 0.108D-01-0.388D-01-0.117D+00-0.291D-01 0.117D+01
 Gap=     0.304 Goal=   None    Shift=    0.000
 RMSDP=2.25D-07 MaxDP=1.27D-05 DE=-7.11D-10 OVMax= 8.67D-06

 Cycle  13  Pass 1  IDiag  1:
 RMSU=  9.16D-08    CP:  7.07D-01  1.45D+00  7.83D-01  8.53D-01  1.16D+00
                    CP:  1.01D+00  1.27D+00  1.23D+00  1.42D+00  1.20D+00
                    CP:  1.18D+00  1.34D+00
 E= -460.888631015074     Delta-E=       -0.000000000104 Rises=F Damp=F
 DIIS: error= 1.63D-07 at cycle  13 NSaved=  13.
 NSaved=13 IEnMin=13 EnMin= -460.888631015074     IErMin=13 ErrMin= 1.63D-07
 ErrMax= 1.63D-07  0.00D+00 EMaxC= 1.00D-01 BMatC= 3.15D-12 BMatP= 1.62D-11
 IDIUse=1 WtCom= 1.00D+00 WtEn= 0.00D+00
 Coeff-Com: -0.121D-04 0.263D-04 0.149D-04-0.506D-04-0.539D-03-0.430D-03
 Coeff-Com:  0.301D-02 0.760D-02-0.419D-02-0.560D-01-0.730D-01 0.348D+00
 Coeff-Com:  0.775D+00
 Coeff:     -0.121D-04 0.263D-04 0.149D-04-0.506D-04-0.539D-03-0.430D-03
 Coeff:      0.301D-02 0.760D-02-0.419D-02-0.560D-01-0.730D-01 0.348D+00
 Coeff:      0.775D+00
 Gap=     0.304 Goal=   None    Shift=    0.000
 RMSDP=7.18D-08 MaxDP=3.73D-06 DE=-1.04D-10 OVMax= 1.89D-06

 Cycle  14  Pass 1  IDiag  1:
 RMSU=  2.39D-08    CP:  7.07D-01  1.45D+00  7.83D-01  8.53D-01  1.16D+00
                    CP:  1.01D+00  1.27D+00  1.22D+00  1.42D+00  1.19D+00
                    CP:  1.18D+00  1.45D+00  1.24D+00
 E= -460.888631015088     Delta-E=       -0.000000000014 Rises=F Damp=F
 DIIS: error= 1.08D-07 at cycle  14 NSaved=  14.
 NSaved=14 IEnMin=14 EnMin= -460.888631015088     IErMin=14 ErrMin= 1.08D-07
 ErrMax= 1.08D-07  0.00D+00 EMaxC= 1.00D-01 BMatC= 4.99D-13 BMatP= 3.15D-12
 IDIUse=1 WtCom= 1.00D+00 WtEn= 0.00D+00
 Coeff-Com: -0.162D-05 0.335D-05 0.403D-05 0.963D-05 0.427D-04-0.912D-04
 Coeff-Com: -0.118D-02-0.108D-03 0.642D-02 0.103D-01-0.114D-01-0.172D+00
 Coeff-Com:  0.157D+00 0.101D+01
 Coeff:     -0.162D-05 0.335D-05 0.403D-05 0.963D-05 0.427D-04-0.912D-04
 Coeff:     -0.118D-02-0.108D-03 0.642D-02 0.103D-01-0.114D-01-0.172D+00
 Coeff:      0.157D+00 0.101D+01
 Gap=     0.304 Goal=   None    Shift=    0.000
 RMSDP=5.13D-08 MaxDP=3.33D-06 DE=-1.41D-11 OVMax= 1.49D-06

 Cycle  15  Pass 1  IDiag  1:
 RMSU=  1.20D-08    CP:  7.07D-01  1.45D+00  7.83D-01  8.53D-01  1.16D+00
                    CP:  1.01D+00  1.27D+00  1.22D+00  1.42D+00  1.19D+00
                    CP:  1.19D+00  1.51D+00  1.45D+00  1.24D+00
 E= -460.888631015086     Delta-E=        0.000000000002 Rises=F Damp=F
 DIIS: error= 3.04D-08 at cycle  15 NSaved=  15.
 NSaved=15 IEnMin=14 EnMin= -460.888631015088     IErMin=15 ErrMin= 3.04D-08
 ErrMax= 3.04D-08  0.00D+00 EMaxC= 1.00D-01 BMatC= 5.33D-14 BMatP= 4.99D-13
 IDIUse=1 WtCom= 1.00D+00 WtEn= 0.00D+00
 Coeff-Com:  0.749D-06-0.166D-05-0.920D-06 0.452D-05 0.508D-04 0.386D-04
 Coeff-Com: -0.297D-03-0.612D-03 0.724D-04 0.503D-02 0.102D-01-0.344D-01
 Coeff-Com: -0.119D+00-0.441D-02 0.114D+01
 Coeff:      0.749D-06-0.166D-05-0.920D-06 0.452D-05 0.508D-04 0.386D-04
 Coeff:     -0.297D-03-0.612D-03 0.724D-04 0.503D-02 0.102D-01-0.344D-01
 Coeff:     -0.119D+00-0.441D-02 0.114D+01
 Gap=     0.304 Goal=   None    Shift=    0.000
 RMSDP=1.41D-08 MaxDP=8.00D-07 DE= 2.27D-12 OVMax= 5.13D-07

 Cycle  16  Pass 1  IDiag  1:
 RMSU=  3.19D-09    CP:  7.07D-01  1.45D+00  7.83D-01  8.53D-01  1.16D+00
                    CP:  1.01D+00  1.27D+00  1.22D+00  1.42D+00  1.19D+00
                    CP:  1.19D+00  1.53D+00  1.51D+00  1.42D+00  1.31D+00
 E= -460.888631015085     Delta-E=        0.000000000001 Rises=F Damp=F
 DIIS: error= 1.07D-08 at cycle  16 NSaved=  16.
 NSaved=16 IEnMin=14 EnMin= -460.888631015088     IErMin=16 ErrMin= 1.07D-08
 ErrMax= 1.07D-08  0.00D+00 EMaxC= 1.00D-01 BMatC= 7.34D-15 BMatP= 5.33D-14
 IDIUse=1 WtCom= 1.00D+00 WtEn= 0.00D+00
 Coeff-Com:  0.376D-06-0.806D-06-0.741D-06 0.212D-07 0.991D-05 0.219D-04
 Coeff-Com:  0.244D-04-0.157D-03-0.533D-03 0.213D-03 0.477D-02 0.645D-02
 Coeff-Com: -0.487D-01-0.828D-01 0.280D+00 0.841D+00
 Coeff:      0.376D-06-0.806D-06-0.741D-06 0.212D-07 0.991D-05 0.219D-04
 Coeff:      0.244D-04-0.157D-03-0.533D-03 0.213D-03 0.477D-02 0.645D-02
 Coeff:     -0.487D-01-0.828D-01 0.280D+00 0.841D+00
 Gap=     0.304 Goal=   None    Shift=    0.000
 RMSDP=3.22D-09 MaxDP=3.43D-07 DE= 6.82D-13 OVMax= 1.21D-07

 SCF Done:  E(RwB97XD) =  -460.888631015     A.U. after   16 cycles
            NFock= 16  Conv=0.32D-08     -V/T= 1.9983
 KE= 4.616668045711D+02 PE=-2.201304055472D+03 EE= 7.152379453529D+02
 Leave Link  502 at Mon Nov 21 14:55:13 2022, MaxMem= 16106127360 cpu:             753.2 elap:              23.6
 (Enter /opt/ap/G16/B01/g16/l601.exe)
 Copying SCF densities to generalized density rwf, IOpCl= 0 IROHF=0.

 **********************************************************************

            Population analysis using the SCF Density.

 **********************************************************************

 Orbital symmetries:
       Occupied  (A) (A) (A) (A) (A) (A) (A) (A) (A) (A) (A) (A)
                 (A) (A) (A) (A) (A) (A) (A) (A) (A) (A) (A) (A)
                 (A) (A) (A) (A) (A) (A) (A) (A) (A) (A) (A) (A)
                 (A) (A)
       Virtual   (A) (A) (A) (A) (A) (A) (A) (A) (A) (A) (A) (A)
                 (A) (A) (A) (A) (A) (A) (A) (A) (A) (A) (A) (A)
                 (A) (A) (A) (A) (A) (A) (A) (A) (A) (A) (A) (A)
                 (A) (A) (A) (A) (A) (A) (A) (A) (A) (A) (A) (A)
                 (A) (A) (A) (A) (A) (A) (A) (A) (A) (A) (A) (A)
                 (A) (A) (A) (A) (A) (A) (A) (A) (A) (A) (A) (A)
                 (A) (A) (A) (A) (A) (A) (A) (A) (A) (A) (A) (A)
                 (A) (A) (A) (A) (A) (A) (A) (A) (A) (A) (A) (A)
                 (A) (A) (A) (A) (A) (A) (A) (A) (A) (A) (A) (A)
                 (A) (A) (A) (A) (A) (A) (A) (A) (A) (A) (A) (A)
                 (A) (A) (A) (A) (A) (A) (A) (A) (A) (A) (A) (A)
                 (A) (A) (A) (A) (A) (A) (A) (A) (A) (A) (A) (A)
                 (A) (A) (A) (A) (A) (A) (A) (A) (A) (A) (A) (A)
                 (A) (A) (A) (A) (A) (A) (A) (A) (A) (A) (A) (A)
                 (A) (A) (A) (A) (A) (A) (A) (A) (A) (A) (A) (A)
                 (A) (A) (A) (A) (A) (A) (A) (A) (A) (A) (A) (A)
                 (A) (A) (A) (A) (A) (A) (A) (A) (A) (A) (A) (A)
                 (A) (A) (A) (A) (A) (A) (A) (A) (A) (A) (A) (A)
                 (A) (A) (A) (A) (A) (A) (A) (A) (A) (A) (A) (A)
                 (A) (A) (A) (A) (A) (A) (A) (A) (A) (A) (A) (A)
                 (A) (A) (A) (A) (A) (A) (A) (A) (A) (A) (A) (A)
                 (A) (A) (A) (A) (A)
 The electronic state is 1-A.
 Alpha  occ. eigenvalues --  -19.26609 -10.35328 -10.30078 -10.30024 -10.28459
 Alpha  occ. eigenvalues --  -10.27727 -10.27496 -10.27223 -10.27192 -10.26610
 Alpha  occ. eigenvalues --  -10.26448  -1.20116  -0.99110  -0.94575  -0.88879
 Alpha  occ. eigenvalues --   -0.86558  -0.84781  -0.75731  -0.74088  -0.72401
 Alpha  occ. eigenvalues --   -0.67993  -0.64785  -0.61664  -0.60433  -0.56156
 Alpha  occ. eigenvalues --   -0.55033  -0.52988  -0.51808  -0.51732  -0.48836
 Alpha  occ. eigenvalues --   -0.47992  -0.46487  -0.43964  -0.42835  -0.41956
 Alpha  occ. eigenvalues --   -0.35813  -0.32972  -0.28782
 Alpha virt. eigenvalues --    0.01625   0.03864   0.04239   0.04672   0.05060
 Alpha virt. eigenvalues --    0.06290   0.06583   0.08486   0.08805   0.09422
 Alpha virt. eigenvalues --    0.10901   0.11236   0.12254   0.12657   0.13877
 Alpha virt. eigenvalues --    0.14890   0.14960   0.15450   0.15836   0.16592
 Alpha virt. eigenvalues --    0.16765   0.17503   0.17758   0.17827   0.18331
 Alpha virt. eigenvalues --    0.18959   0.19080   0.19966   0.20419   0.20462
 Alpha virt. eigenvalues --    0.21837   0.21899   0.22212   0.22658   0.22973
 Alpha virt. eigenvalues --    0.25025   0.25811   0.25963   0.26185   0.26880
 Alpha virt. eigenvalues --    0.27036   0.28733   0.29509   0.29766   0.29970
 Alpha virt. eigenvalues --    0.31096   0.31763   0.31932   0.32392   0.33758
 Alpha virt. eigenvalues --    0.34292   0.34680   0.35447   0.35639   0.35904
 Alpha virt. eigenvalues --    0.37216   0.38235   0.38628   0.38886   0.40484
 Alpha virt. eigenvalues --    0.41464   0.42021   0.42716   0.43608   0.43901
 Alpha virt. eigenvalues --    0.45985   0.46933   0.47332   0.49228   0.51739
 Alpha virt. eigenvalues --    0.56861   0.58079   0.60351   0.60884   0.61549
 Alpha virt. eigenvalues --    0.62150   0.64737   0.65503   0.65808   0.66474
 Alpha virt. eigenvalues --    0.66935   0.67361   0.68185   0.69280   0.70562
 Alpha virt. eigenvalues --    0.70803   0.71118   0.71696   0.71980   0.74139
 Alpha virt. eigenvalues --    0.75687   0.76709   0.78216   0.81793   0.82016
 Alpha virt. eigenvalues --    0.83810   0.85389   0.86913   0.88221   0.90023
 Alpha virt. eigenvalues --    0.90769   0.92482   0.92747   0.93426   0.96010
 Alpha virt. eigenvalues --    0.96600   0.97668   0.99571   1.00428   1.01316
 Alpha virt. eigenvalues --    1.02275   1.03362   1.03704   1.05577   1.06038
 Alpha virt. eigenvalues --    1.06988   1.10187   1.11803   1.13747   1.14046
 Alpha virt. eigenvalues --    1.14713   1.18453   1.19268   1.19901   1.21197
 Alpha virt. eigenvalues --    1.22667   1.23134   1.24168   1.24306   1.28617
 Alpha virt. eigenvalues --    1.31643   1.34738   1.44071   1.45934   1.48166
 Alpha virt. eigenvalues --    1.52235   1.56463   1.57939   1.59193   1.60574
 Alpha virt. eigenvalues --    1.61269   1.62579   1.62798   1.68992   1.69640
 Alpha virt. eigenvalues --    1.70777   1.70947   1.73966   1.75950   1.76719
 Alpha virt. eigenvalues --    1.77851   1.80426   1.81967   1.85871   1.89112
 Alpha virt. eigenvalues --    1.90020   1.91524   1.93098   1.93216   1.96915
 Alpha virt. eigenvalues --    1.97279   1.99697   2.01139   2.03112   2.04001
 Alpha virt. eigenvalues --    2.04473   2.07522   2.07985   2.08415   2.09758
 Alpha virt. eigenvalues --    2.11541   2.13326   2.15211   2.19145   2.24746
 Alpha virt. eigenvalues --    2.27458   2.28287   2.32693   2.34474   2.37439
 Alpha virt. eigenvalues --    2.39275   2.42922   2.46768   2.50968   2.51886
 Alpha virt. eigenvalues --    2.52746   2.55674   2.55860   2.64967   2.67225
 Alpha virt. eigenvalues --    2.68880   2.72231   2.75368   2.78371   2.79657
 Alpha virt. eigenvalues --    2.81964   2.84929   2.87324   2.88396   2.92934
 Alpha virt. eigenvalues --    2.93400   2.94322   2.99676   3.00814   3.01719
 Alpha virt. eigenvalues --    3.02275   3.04669   3.06432   3.07655   3.08460
 Alpha virt. eigenvalues --    3.12136   3.17788   3.18274   3.20681   3.21463
 Alpha virt. eigenvalues --    3.23398   3.23878   3.28700   3.35153   3.36944
 Alpha virt. eigenvalues --    3.37640   3.48240   3.49731   3.53223   3.55816
 Alpha virt. eigenvalues --    3.65913   3.73682   3.78194   3.79770   3.83523
 Alpha virt. eigenvalues --    3.88044   3.89508   3.99264   4.22837   4.28255
 Alpha virt. eigenvalues --    4.43254   4.44845   4.46174   4.52308   4.58236
 Alpha virt. eigenvalues --    4.62477   4.94407   4.97381   5.12448   5.64244
 Alpha virt. eigenvalues --    6.20527  23.80645  24.05628  24.15256  24.16777
 Alpha virt. eigenvalues --   24.21946  24.25727  24.41186  24.43765  24.51607
 Alpha virt. eigenvalues --   24.53195  50.17854
          Condensed to atoms (all electrons):
               1          2          3          4          5          6
     1  C   19.582308   0.610466  -4.615768  -1.293000  -3.754894  -1.980655
     2  C    0.610466   9.593043  -1.451040  -1.912937  -1.324961  -0.695786
     3  C   -4.615768  -1.451040  12.327347   1.668768   0.229746  -0.871575
     4  C   -1.293000  -1.912937   1.668768   8.176466  -0.045404  -0.077639
     5  C   -3.754894  -1.324961   0.229746  -0.045404   8.924766   2.024327
     6  C   -1.980655  -0.695786  -0.871575  -0.077639   2.024327   9.240487
     7  C   -5.422541   1.775736   0.855820  -0.813713   0.336600  -0.786247
     8  O    0.580853  -0.104537   0.031859   0.031778  -0.039253   0.116444
     9  C    1.025309  -0.657030  -0.848484   0.393102  -0.097775   0.340291
    10  H   -0.018989   0.046364   0.042066   0.401946   0.002563  -0.045375
    11  C    0.339171  -0.457038   0.337582  -0.314947   0.352827  -0.885701
    12  H    0.000992  -0.015723  -0.046361   0.012916   0.454918   0.053402
    13  C    0.388706   0.245073  -1.088339   0.200715  -0.784869  -0.444633
    14  H   -0.000699   0.024228  -0.067854  -0.016444   0.035207   0.462158
    15  H   -0.202013   0.054154  -0.115689  -0.001500  -0.015226  -0.020934
    16  H   -0.302150   0.005708   0.201337   0.008020  -0.012212  -0.062331
    17  H    0.144815  -0.067562   0.033446  -0.077090   0.011416   0.013249
    18  H    0.000333   0.010182  -0.014046   0.011473  -0.038223  -0.028617
    19  H    0.023814  -0.001839   0.015129  -0.011644  -0.033702  -0.047073
               7          8          9         10         11         12
     1  C   -5.422541   0.580853   1.025309  -0.018989   0.339171   0.000992
     2  C    1.775736  -0.104537  -0.657030   0.046364  -0.457038  -0.015723
     3  C    0.855820   0.031859  -0.848484   0.042066   0.337582  -0.046361
     4  C   -0.813713   0.031778   0.393102   0.401946  -0.314947   0.012916
     5  C    0.336600  -0.039253  -0.097775   0.002563   0.352827   0.454918
     6  C   -0.786247   0.116444   0.340291  -0.045375  -0.885701   0.053402
     7  C   11.095330  -0.850431  -0.213541   0.049502   0.158934  -0.008333
     8  O   -0.850431   8.066787   0.018723  -0.000131   0.002936   0.000086
     9  C   -0.213541   0.018723   6.148502  -0.128383  -0.321417   0.042752
    10  H    0.049502  -0.000131  -0.128383   0.499285   0.036895   0.001042
    11  C    0.158934   0.002936  -0.321417   0.036895   6.280121  -0.152848
    12  H   -0.008333   0.000086   0.042752   0.001042  -0.152848   0.512099
    13  C   -0.527348   0.156514   0.102244  -0.007442   0.439030   0.008861
    14  H   -0.007679  -0.006310  -0.000683   0.000367   0.002986   0.000916
    15  H    0.728965  -0.047399  -0.069986   0.002660   0.001296  -0.000646
    16  H    0.196509   0.264433  -0.004388   0.000769   0.004006  -0.000217
    17  H   -0.214311   0.003572   0.486956  -0.020347  -0.001272   0.001100
    18  H   -0.001754   0.000102   0.002834   0.000535   0.467689  -0.019725
    19  H    0.004649   0.000913  -0.001519  -0.000413  -0.060268   0.000119
              13         14         15         16         17         18
     1  C    0.388706  -0.000699  -0.202013  -0.302150   0.144815   0.000333
     2  C    0.245073   0.024228   0.054154   0.005708  -0.067562   0.010182
     3  C   -1.088339  -0.067854  -0.115689   0.201337   0.033446  -0.014046
     4  C    0.200715  -0.016444  -0.001500   0.008020  -0.077090   0.011473
     5  C   -0.784869   0.035207  -0.015226  -0.012212   0.011416  -0.038223
     6  C   -0.444633   0.462158  -0.020934  -0.062331   0.013249  -0.028617
     7  C   -0.527348  -0.007679   0.728965   0.196509  -0.214311  -0.001754
     8  O    0.156514  -0.006310  -0.047399   0.264433   0.003572   0.000102
     9  C    0.102244  -0.000683  -0.069986  -0.004388   0.486956   0.002834
    10  H   -0.007442   0.000367   0.002660   0.000769  -0.020347   0.000535
    11  C    0.439030   0.002986   0.001296   0.004006  -0.001272   0.467689
    12  H    0.008861   0.000916  -0.000646  -0.000217   0.001100  -0.019725
    13  C    7.106331  -0.068405   0.000188  -0.019652   0.003204  -0.062473
    14  H   -0.068405   0.595176   0.000397  -0.004001   0.000014   0.000442
    15  H    0.000188   0.000397   0.502216   0.005417  -0.024126  -0.000037
    16  H   -0.019652  -0.004001   0.005417   0.441438  -0.001093  -0.000184
    17  H    0.003204   0.000014  -0.024126  -0.001093   0.516609   0.000032
    18  H   -0.062473   0.000442  -0.000037  -0.000184   0.000032   0.505957
    19  H    0.450935  -0.022211   0.000059   0.000951  -0.000043  -0.013767
              19
     1  C    0.023814
     2  C   -0.001839
     3  C    0.015129
     4  C   -0.011644
     5  C   -0.033702
     6  C   -0.047073
     7  C    0.004649
     8  O    0.000913
     9  C   -0.001519
    10  H   -0.000413
    11  C   -0.060268
    12  H    0.000119
    13  C    0.450935
    14  H   -0.022211
    15  H    0.000059
    16  H    0.000951
    17  H   -0.000043
    18  H   -0.013767
    19  H    0.504337
 Mulliken charges:
               1
     1  C    0.893942
     2  C    0.323498
     3  C   -0.623945
     4  C   -0.340865
     5  C   -0.225852
     6  C   -0.303793
     7  C   -0.356146
     8  O   -0.226938
     9  C   -0.217506
    10  H    0.137086
    11  C   -0.229981
    12  H    0.154650
    13  C   -0.098638
    14  H    0.072393
    15  H    0.202204
    16  H    0.277640
    17  H    0.191432
    18  H    0.179248
    19  H    0.191572
 Sum of Mulliken charges =  -0.00000
 Mulliken charges with hydrogens summed into heavy atoms:
               1
     1  C    0.893942
     2  C    0.323498
     3  C   -0.623945
     4  C   -0.203779
     5  C   -0.071202
     6  C   -0.231400
     7  C   -0.153942
     8  O    0.050701
     9  C   -0.026074
    11  C   -0.050733
    13  C    0.092933
 Electronic spatial extent (au):  <R**2>=           1501.1158
 Charge=             -0.0000 electrons
 Dipole moment (field-independent basis, Debye):
    X=              1.5857    Y=             -0.4556    Z=              0.1000  Tot=              1.6529
 Quadrupole moment (field-independent basis, Debye-Ang):
   XX=            -57.7309   YY=            -56.3837   ZZ=            -67.8892
   XY=              4.7423   XZ=             -0.0766   YZ=              0.2937
 Traceless Quadrupole moment (field-independent basis, Debye-Ang):
   XX=              2.9370   YY=              4.2842   ZZ=             -7.2212
   XY=              4.7423   XZ=             -0.0766   YZ=              0.2937
 Octapole moment (field-independent basis, Debye-Ang**2):
  XXX=              5.6383  YYY=              6.8240  ZZZ=              0.0212  XYY=             10.4297
  XXY=            -10.7735  XXZ=             -0.0244  XZZ=             -2.8562  YZZ=              4.5401
  YYZ=              0.9075  XYZ=             -0.3223
 Hexadecapole moment (field-independent basis, Debye-Ang**3):
 XXXX=          -1096.2525 YYYY=           -641.5881 ZZZZ=            -77.1282 XXXY=             22.9056
 XXXZ=              0.1138 YYYX=             18.0383 YYYZ=              2.2443 ZZZX=              0.0191
 ZZZY=              0.1370 XXYY=           -321.5786 XXZZ=           -236.8762 YYZZ=           -142.4338
 XXYZ=              0.1825 YYXZ=             -0.6638 ZZXY=             -6.2532
 N-N= 5.635106745329D+02 E-N=-2.201304055568D+03  KE= 4.616668045711D+02
 No NMR shielding tensors so no spin-rotation constants.
 Leave Link  601 at Mon Nov 21 14:55:13 2022, MaxMem= 16106127360 cpu:               3.8 elap:               0.1
 (Enter /opt/ap/G16/B01/g16/l9999.exe)
 1\1\GINC-N12\SP\RwB97XD\6-311++G(d,p)\C10H8O1\ROOT\21-Nov-2022\0\\#P w
 B97XD/6-311++G(d,p) scf=maxcycle=512\\_conf035.gjf nmol_natom 1_19\\0,
 1\C\C,1,1.40879539\C,1,1.42289824,2,117.24956717\C,2,1.41887971,1,119.
 07594714,3,0.16510261,0\C,2,1.42227783,1,117.46262303,3,-179.44443577,
 0\C,1,1.42440336,2,119.00293897,4,179.73740031,0\C,3,1.35510367,1,122.
 33979448,2,-0.36120568,0\O,3,1.37615658,1,115.04370777,2,-179.5931286,
 0\C,4,1.34577659,2,121.30210156,1,0.17277764,0\H,4,0.93023405,2,119.33
 469462,1,-179.75965297,0\C,5,1.34486794,2,122.06073707,1,-0.32265162,0
 \H,5,0.92957893,2,118.96449269,1,179.64671542,0\C,6,1.35980576,1,121.1
 112438,2,0.11625163,0\H,6,0.92999796,1,119.43671105,2,-179.87270235,0\
 H,7,0.93052813,3,120.28038366,1,-179.76477098,0\H,8,0.81991994,3,109.4
 8785721,1,-5.,0\H,9,0.93027331,4,119.71917791,2,179.60144151,0\H,11,0.
 92987565,5,119.70372857,2,-179.69197286,0\H,13,0.93032717,6,120.145246
 92,1,179.85241379,0\\Version=ES64L-G16RevB.01\State=1-A\HF=-460.888631
 \RMSD=3.224e-09\Dipole=-0.5712345,-0.0423748,0.3078652\Quadrupole=3.69
 43926,-5.3685414,1.6741488,0.0404991,3.4136196,0.2454563\PG=C01 [X(C10
 H8O1)]\\@


 IMAGINATION WILL OFTEN CARRY US TO WORLDS THAT NEVER WERE.
 BUT WITHOUT IT, WE GO NOWHERE. -- CARL SAGAN (COSMOS)
 Job cpu time:       0 days  0 hours 13 minutes 14.0 seconds.
 Elapsed time:       0 days  0 hours  0 minutes 25.0 seconds.
 File lengths (MBytes):  RWF=     51 Int=      0 D2E=      0 Chk=      6 Scr=      1
 Normal termination of Gaussian 16 at Mon Nov 21 14:55:13 2022.
