 Entering Gaussian System, Link 0=g16
 Input=_conf022.gjf
 Output=_conf022.log
 Initial command:
 /opt/ap/G16/B01/g16/l1.exe "/tmp2/scr/Gau-31949.inp" -scrdir="/tmp2/scr/"
 Entering Link 1 = /opt/ap/G16/B01/g16/l1.exe PID=     31950.
  
 Copyright (c) 1988-2017, Gaussian, Inc.  All Rights Reserved.
  
 This is part of the Gaussian(R) 16 program.  It is based on
 the Gaussian(R) 09 system (copyright 2009, Gaussian, Inc.),
 the Gaussian(R) 03 system (copyright 2003, Gaussian, Inc.),
 the Gaussian(R) 98 system (copyright 1998, Gaussian, Inc.),
 the Gaussian(R) 94 system (copyright 1995, Gaussian, Inc.),
 the Gaussian 92(TM) system (copyright 1992, Gaussian, Inc.),
 the Gaussian 90(TM) system (copyright 1990, Gaussian, Inc.),
 the Gaussian 88(TM) system (copyright 1988, Gaussian, Inc.),
 the Gaussian 86(TM) system (copyright 1986, Carnegie Mellon
 University), and the Gaussian 82(TM) system (copyright 1983,
 Carnegie Mellon University). Gaussian is a federally registered
 trademark of Gaussian, Inc.
  
 This software contains proprietary and confidential information,
 including trade secrets, belonging to Gaussian, Inc.
  
 This software is provided under written license and may be
 used, copied, transmitted, or stored only in accord with that
 written license.
  
 The following legend is applicable only to US Government
 contracts under FAR:
  
                    RESTRICTED RIGHTS LEGEND
  
 Use, reproduction and disclosure by the US Government is
 subject to restrictions as set forth in subparagraphs (a)
 and (c) of the Commercial Computer Software - Restricted
 Rights clause in FAR 52.227-19.
  
 Gaussian, Inc.
 340 Quinnipiac St., Bldg. 40, Wallingford CT 06492
  
  
 ---------------------------------------------------------------
 Warning -- This program may not be used in any manner that
 competes with the business of Gaussian, Inc. or will provide
 assistance to any competitor of Gaussian, Inc.  The licensee
 of this program is prohibited from giving any competitor of
 Gaussian, Inc. access to this program.  By using this program,
 the user acknowledges that Gaussian, Inc. is engaged in the
 business of creating and licensing software in the field of
 computational chemistry and represents and warrants to the
 licensee that it is not a competitor of Gaussian, Inc. and that
 it will not use this program in any manner prohibited above.
 ---------------------------------------------------------------
  

 Cite this work as:
 Gaussian 16, Revision B.01,
 M. J. Frisch, G. W. Trucks, H. B. Schlegel, G. E. Scuseria, 
 M. A. Robb, J. R. Cheeseman, G. Scalmani, V. Barone, 
 G. A. Petersson, H. Nakatsuji, X. Li, M. Caricato, A. V. Marenich, 
 J. Bloino, B. G. Janesko, R. Gomperts, B. Mennucci, H. P. Hratchian, 
 J. V. Ortiz, A. F. Izmaylov, J. L. Sonnenberg, D. Williams-Young, 
 F. Ding, F. Lipparini, F. Egidi, J. Goings, B. Peng, A. Petrone, 
 T. Henderson, D. Ranasinghe, V. G. Zakrzewski, J. Gao, N. Rega, 
 G. Zheng, W. Liang, M. Hada, M. Ehara, K. Toyota, R. Fukuda, 
 J. Hasegawa, M. Ishida, T. Nakajima, Y. Honda, O. Kitao, H. Nakai, 
 T. Vreven, K. Throssell, J. A. Montgomery, Jr., J. E. Peralta, 
 F. Ogliaro, M. J. Bearpark, J. J. Heyd, E. N. Brothers, K. N. Kudin, 
 V. N. Staroverov, T. A. Keith, R. Kobayashi, J. Normand, 
 K. Raghavachari, A. P. Rendell, J. C. Burant, S. S. Iyengar, 
 J. Tomasi, M. Cossi, J. M. Millam, M. Klene, C. Adamo, R. Cammi, 
 J. W. Ochterski, R. L. Martin, K. Morokuma, O. Farkas, 
 J. B. Foresman, and D. J. Fox, Gaussian, Inc., Wallingford CT, 2016.
 
 ******************************************
 Gaussian 16:  ES64L-G16RevB.01 20-Dec-2017
                21-Nov-2022 
 ******************************************
 %nprocshared=32
 Will use up to   32 processors via shared memory.
 %mem=120GB
 %chk=_conf022.chk
 ----------------------------------------
 #P wB97XD/6-311++G(d,p) scf=maxcycle=512
 ----------------------------------------
 1/38=1,172=1/1;
 2/12=2,17=6,18=5,40=1/2;
 3/5=4,6=6,7=1111,11=2,25=1,30=1,74=-58/1,2,3;
 4//1;
 5/5=2,7=512,38=5/2;
 6/7=2,8=2,9=2,10=2,28=1/1;
 99/5=1,9=1/99;
 Leave Link    1 at Mon Nov 21 14:53:43 2022, MaxMem= 16106127360 cpu:               1.8 elap:               0.1
 (Enter /opt/ap/G16/B01/g16/l101.exe)
 ----------------------------
 _conf022.gjf nmol_natom 1_19
 ----------------------------
 Symbolic Z-matrix:
 Charge =  0 Multiplicity = 1
 C
 C                    1     1.4088 
 C                    1     1.4229   2     117.24957 
 C                    2     1.41888  1     119.07595  3     0.1651   0
 C                    2     1.42228  1     117.46262  3    -179.44444  0
 C                    1     1.4244   2     119.00294  4     179.7374  0
 C                    3     1.3551   1     122.33979  2    -0.36121  0
 O                    3     1.37616  1     115.04371  2    -179.59313  0
 C                    4     1.34578  2     121.3021  1     0.17278  0
 H                    4     0.93023  2     119.33469  1    -179.75965  0
 C                    5     1.34487  2     122.06074  1    -0.32265  0
 H                    5     0.92958  2     118.96449  1     179.64672  0
 C                    6     1.35981  1     121.11124  2     0.11625  0
 H                    6     0.93     1     119.43671  2    -179.8727  0
 H                    7     0.93053  3     120.28038  1    -179.76477  0
 H                    8     0.81992  3     109.48786  1    -70.      0
 H                    9     0.93027  4     119.71918  2     179.60144  0
 H                    11    0.92988  5     119.70373  2    -179.69197  0
 H                    13    0.93033  6     120.14525  1     179.85241  0
 
 ITRead=  0  0  0  0  0  0  0  0  0  0  0  0  0  0  0  0  0  0  0
 MicOpt= -1 -1 -1 -1 -1 -1 -1 -1 -1 -1 -1 -1 -1 -1 -1 -1 -1 -1 -1
 NAtoms=     19 NQM=       19 NQMF=       0 NMMI=      0 NMMIF=      0
                NMic=       0 NMicF=      0.
                    Isotopes and Nuclear Properties:
 (Nuclear quadrupole moments (NQMom) in fm**2, nuclear magnetic moments (NMagM)
  in nuclear magnetons)

  Atom         1           2           3           4           5           6           7           8           9          10
 IAtWgt=          12          12          12          12          12          12          12          16          12           1
 AtmWgt=  12.0000000  12.0000000  12.0000000  12.0000000  12.0000000  12.0000000  12.0000000  15.9949146  12.0000000   1.0078250
 NucSpn=           0           0           0           0           0           0           0           0           0           1
 AtZEff=  -0.0000000  -0.0000000  -0.0000000  -0.0000000  -0.0000000  -0.0000000  -0.0000000  -0.0000000  -0.0000000  -0.0000000
 NQMom=    0.0000000   0.0000000   0.0000000   0.0000000   0.0000000   0.0000000   0.0000000   0.0000000   0.0000000   0.0000000
 NMagM=    0.0000000   0.0000000   0.0000000   0.0000000   0.0000000   0.0000000   0.0000000   0.0000000   0.0000000   2.7928460
 AtZNuc=   6.0000000   6.0000000   6.0000000   6.0000000   6.0000000   6.0000000   6.0000000   8.0000000   6.0000000   1.0000000

  Atom        11          12          13          14          15          16          17          18          19
 IAtWgt=          12           1          12           1           1           1           1           1           1
 AtmWgt=  12.0000000   1.0078250  12.0000000   1.0078250   1.0078250   1.0078250   1.0078250   1.0078250   1.0078250
 NucSpn=           0           1           0           1           1           1           1           1           1
 AtZEff=  -0.0000000  -0.0000000  -0.0000000  -0.0000000  -0.0000000  -0.0000000  -0.0000000  -0.0000000  -0.0000000
 NQMom=    0.0000000   0.0000000   0.0000000   0.0000000   0.0000000   0.0000000   0.0000000   0.0000000   0.0000000
 NMagM=    0.0000000   2.7928460   0.0000000   2.7928460   2.7928460   2.7928460   2.7928460   2.7928460   2.7928460
 AtZNuc=   6.0000000   1.0000000   6.0000000   1.0000000   1.0000000   1.0000000   1.0000000   1.0000000   1.0000000
 Leave Link  101 at Mon Nov 21 14:53:43 2022, MaxMem= 16106127360 cpu:               5.2 elap:               0.2
 (Enter /opt/ap/G16/B01/g16/l202.exe)
                          Input orientation:                          
 ---------------------------------------------------------------------
 Center     Atomic      Atomic             Coordinates (Angstroms)
 Number     Number       Type             X           Y           Z
 ---------------------------------------------------------------------
      1          6           0        0.000000    0.000000    0.000000
      2          6           0        0.000000    0.000000    1.408795
      3          6           0        1.264986    0.000000   -0.651498
      4          6           0        1.240062    0.003573    2.098326
      5          6           0       -1.261945   -0.012237    2.064707
      6          6           0       -1.245741   -0.009299   -0.690628
      7          6           0        2.433644    0.007218    0.034427
      8          8           0        1.212032    0.008854   -2.026607
      9          6           0        2.409936    0.010412    1.433147
     10          1           0        1.244276    0.000184    3.028545
     11          6           0       -2.421000   -0.017057    1.382624
     12          1           0       -1.286266   -0.017488    2.993953
     13          6           0       -2.424704   -0.015738   -0.013076
     14          1           0       -1.252769   -0.011151   -1.620598
     15          1           0        3.245045    0.010306   -0.421097
     16          1           0        0.934978   -0.714908   -2.294338
     17          1           0        3.210137    0.018260    1.907515
     18          1           0       -3.227740   -0.020753    1.845035
     19          1           0       -3.230632   -0.019714   -0.477804
 ---------------------------------------------------------------------
                    Distance matrix (angstroms):
                    1          2          3          4          5
     1  C    0.000000
     2  C    1.408795   0.000000
     3  C    1.422898   2.417643   0.000000
     4  C    2.437363   1.418880   2.749940   0.000000
     5  C    2.419849   1.422278   3.709892   2.502283   0.000000
     6  C    1.424403   2.441216   2.511049   3.735994   2.755385
     7  C    2.433898   2.794917   1.355104   2.384184   4.216609
     8  O    2.361406   3.642951   1.376157   4.125032   4.781198
     9  C    2.803892   2.410081   2.378396   1.345777   3.725867
    10  H    3.274188   2.042501   3.680101   0.930234   2.685197
    11  C    2.788042   2.421201   4.210040   3.730420   1.344868
    12  H    3.258610   2.041448   4.449551   2.680471   0.929579
    13  C    2.424790   2.810899   3.744548   4.229527   2.381009
    14  H    2.048388   3.278228   2.697845   4.477144   3.685317
    15  H    3.272269   3.725443   1.993445   3.219859   5.147104
    16  H    2.578616   3.885675   1.821790   4.461478   4.931682
    17  H    3.734157   3.248697   3.214420   1.979348   4.474947
    18  H    3.717915   3.257153   5.139815   4.475043   1.978050
    19  H    3.265834   3.741207   4.499015   5.159854   3.215610
                    6          7          8          9         10
     6  C    0.000000
     7  C    3.750180   0.000000
     8  O    2.797466   2.395871   0.000000
     9  C    4.227858   1.398925   3.661267   0.000000
    10  H    4.475771   3.221706   5.055262   1.975895   0.000000
    11  C    2.383205   5.038431   4.982213   4.831278   4.017910
    12  H    3.684813   4.753644   5.607870   4.012331   2.530840
    13  C    1.359806   4.858634   4.157013   5.046383   4.765829
    14  H    0.929998   4.040926   2.498097   4.768777   5.277300
    15  H    4.498910   0.930528   2.590522   2.033624   3.987882
    16  H    2.797374   2.861923   0.819920   4.073786   5.379600
    17  H    5.158096   2.027689   4.412463   0.930273   2.263105
    18  H    3.218391   5.943934   5.890846   5.652788   4.626021
    19  H    1.996295   5.687453   4.704984   5.955556   5.685040
                   11         12         13         14         15
    11  C    0.000000
    12  H    1.970788   0.000000
    13  C    1.395705   3.215317   0.000000
    14  H    3.222443   4.614677   1.989366   0.000000
    15  H    5.946277   5.674162   5.684470   4.655061   0.000000
    16  H    5.026890   5.778091   4.120735   2.394877   3.061270
    17  H    5.655657   4.625934   5.953256   5.689110   2.328887
    18  H    0.929876   2.255958   2.024221   3.988887   6.858080
    19  H    2.028966   3.979153   0.930327   2.284293   6.475995
                   16         17         18         19
    16  H    0.000000
    17  H    4.834196   0.000000
    18  H    5.911386   6.438299   0.000000
    19  H    4.597325   6.868384   2.322841   0.000000
 Stoichiometry    C10H8O
 Framework group  C1[X(C10H8O)]
 Deg. of freedom    51
 Full point group                 C1      NOp   1
 Largest Abelian subgroup         C1      NOp   1
 Largest concise Abelian subgroup C1      NOp   1
                         Standard orientation:                         
 ---------------------------------------------------------------------
 Center     Atomic      Atomic             Coordinates (Angstroms)
 Number     Number       Type             X           Y           Z
 ---------------------------------------------------------------------
      1          6           0        0.027505    0.426682   -0.017170
      2          6           0        0.343046   -0.946212    0.000167
      3          6           0       -1.351263    0.778292   -0.019963
      4          6           0       -0.711075   -1.895922    0.010201
      5          6           0        1.719854   -1.302646    0.015264
      6          6           0        1.086922    1.378807   -0.021514
      7          6           0       -2.336605   -0.151961   -0.013913
      8          8           0       -1.607661    2.130102   -0.045957
      9          6           0       -2.000221   -1.509769    0.000008
     10          1           0       -0.506829   -2.803335    0.025055
     11          6           0        2.696695   -0.378318    0.006904
     12          1           0        1.951695   -2.202697    0.031849
     13          6           0        2.387697    0.982626   -0.011606
     14          1           0        0.885481    2.286675   -0.031136
     15          1           0       -3.229423    0.110206   -0.019257
     16          1           0       -1.396694    2.462404    0.673304
     17          1           0       -2.673853   -2.151350    0.001302
     18          1           0        3.586514   -0.648233    0.012958
     19          1           0        3.069065    1.616045   -0.016678
 ---------------------------------------------------------------------
 Rotational constants (GHZ):           2.0025678           1.1559330           0.7339634
 Leave Link  202 at Mon Nov 21 14:53:43 2022, MaxMem= 16106127360 cpu:               0.3 elap:               0.0
 (Enter /opt/ap/G16/B01/g16/l301.exe)
 Standard basis: 6-311++G(d,p) (5D, 7F)
 Ernie: Thresh=  0.10000D-02 Tol=  0.10000D-05 Strict=F.
 There are   309 symmetry adapted cartesian basis functions of A   symmetry.
 There are   298 symmetry adapted basis functions of A   symmetry.
   298 basis functions,   468 primitive gaussians,   309 cartesian basis functions
    38 alpha electrons       38 beta electrons
       nuclear repulsion energy       562.9158106663 Hartrees.
 IExCor= 4639 DFT=T Ex+Corr=wB97XD ExCW=0 ScaHFX=  1.000000
 ScaDFX=  1.000000  1.000000  1.000000  1.000000 ScalE2=  1.000000  1.000000
 IRadAn=      5 IRanWt=     -1 IRanGd=            0 ICorTp=0 IEmpDi=121
 HFx  wShort=  0.000000 wLong=  0.200000 cFull=  0.222036 cShort=  0.000000 cLong=  0.777964
 DFx  wShort=  0.000000 wLong=  0.200000 cFull=  0.000000 cShort=  0.000000 cLong=  1.000000
 NAtoms=   19 NActive=   19 NUniq=   19 SFac= 1.00D+00 NAtFMM=   60 NAOKFM=F Big=F
 Integral buffers will be    131072 words long.
 Raffenetti 2 integral format.
 Two-electron integral symmetry is turned on.
 R6Disp:  Grimme-D2 Dispersion energy=       -0.0103982003 Hartrees.
 Nuclear repulsion after empirical dispersion term =      562.9054124660 Hartrees.
 Leave Link  301 at Mon Nov 21 14:53:44 2022, MaxMem= 16106127360 cpu:               1.1 elap:               0.0
 (Enter /opt/ap/G16/B01/g16/l302.exe)
 NPDir=0 NMtPBC=     1 NCelOv=     1 NCel=       1 NClECP=     1 NCelD=      1
         NCelK=      1 NCelE2=     1 NClLst=     1 CellRange=     0.0.
 One-electron integrals computed using PRISM.
 One-electron integral symmetry used in STVInt
 NBasis=   298 RedAO= T EigKep=  1.32D-06  NBF=   298
 NBsUse=   296 1.00D-06 EigRej=  6.39D-07 NBFU=   296
 Precomputing XC quadrature grid using
 IXCGrd= 4 IRadAn=           5 IRanWt=          -1 IRanGd=           0 AccXCQ= 0.00D+00.
 Generated NRdTot=       0 NPtTot=           0 NUsed=           0 NTot=          32
 NSgBfM=   309   309   309   309   309 MxSgAt=    19 MxSgA2=    19.
 Leave Link  302 at Mon Nov 21 14:53:45 2022, MaxMem= 16106127360 cpu:              45.0 elap:               1.5
 (Enter /opt/ap/G16/B01/g16/l303.exe)
 DipDrv:  MaxL=1.
 Leave Link  303 at Mon Nov 21 14:53:45 2022, MaxMem= 16106127360 cpu:               1.4 elap:               0.0
 (Enter /opt/ap/G16/B01/g16/l401.exe)
 ExpMin= 3.60D-02 ExpMax= 8.59D+03 ExpMxC= 1.30D+03 IAcc=3 IRadAn=         5 AccDes= 0.00D+00
 Harris functional with IExCor= 4639 and IRadAn=       5 diagonalized for initial guess.
 HarFok:  IExCor= 4639 AccDes= 0.00D+00 IRadAn=         5 IDoV= 1 UseB2=F ITyADJ=14
 ICtDFT=  3500011 ScaDFX=  1.000000  1.000000  1.000000  1.000000
 FoFCou: FMM=F IPFlag=           0 FMFlag=      100000 FMFlg1=           0
         NFxFlg=           0 DoJE=T BraDBF=F KetDBF=T FulRan=T
         wScrn=  0.000000 ICntrl=       500 IOpCl=  0 I1Cent=   200000004 NGrid=           0
         NMat0=    1 NMatS0=      1 NMatT0=    0 NMatD0=    1 NMtDS0=    0 NMtDT0=    0
 Petite list used in FoFCou.
 Harris En= -440.610794756084    
 JPrj=0 DoOrth=F DoCkMO=F.
 Leave Link  401 at Mon Nov 21 14:53:46 2022, MaxMem= 16106127360 cpu:              16.6 elap:               0.5
 (Enter /opt/ap/G16/B01/g16/l502.exe)
 Integral symmetry usage will be decided dynamically.
 Closed shell SCF:
 Using DIIS extrapolation, IDIIS=  1040.
 NGot= 16106127360 LenX= 16105923535 LenY= 16105827613
 Requested convergence on RMS density matrix=1.00D-08 within 512 cycles.
 Requested convergence on MAX density matrix=1.00D-06.
 Requested convergence on             energy=1.00D-06.
 No special actions if energy rises.
 Fock matrices will be formed incrementally for  20 cycles.

 Cycle   1  Pass 1  IDiag  1:
 FoFJK:  IHMeth= 1 ICntrl=       0 DoSepK=T KAlg= 0 I1Cent=           0 FoldK=F
 IRaf=         1 NMat=       1 IRICut=       1 DoRegI=T DoRafI=F ISym2E= 0 IDoP0=0 IntGTp=1.
 FoFCou: FMM=F IPFlag=           0 FMFlag=      100000 FMFlg1=           0
         NFxFlg=           0 DoJE=T BraDBF=F KetDBF=F FulRan=T
         wScrn=  0.000000 ICntrl=       500 IOpCl=  0 I1Cent=           0 NGrid=           0
         NMat0=    1 NMatS0=      1 NMatT0=    0 NMatD0=    1 NMtDS0=    0 NMtDT0=    0
 Symmetry not used in FoFCou.
 E= -460.754160541465    
 DIIS: error= 5.76D-02 at cycle   1 NSaved=   1.
 NSaved= 1 IEnMin= 1 EnMin= -460.754160541465     IErMin= 1 ErrMin= 5.76D-02
 ErrMax= 5.76D-02  0.00D+00 EMaxC= 1.00D-01 BMatC= 9.52D-01 BMatP= 9.52D-01
 IDIUse=3 WtCom= 4.24D-01 WtEn= 5.76D-01
 Coeff-Com:  0.100D+01
 Coeff-En:   0.100D+01
 Coeff:      0.100D+01
 Gap=     0.329 Goal=   None    Shift=    0.000
 GapD=    0.329 DampG=1.000 DampE=0.500 DampFc=0.5000 IDamp=-1.
 Damping current iteration by 5.00D-01
 RMSDP=4.21D-02 MaxDP=4.57D+00              OVMax= 1.28D-01

 Cycle   2  Pass 1  IDiag  1:
 RMSU=  8.36D-03    CP:  8.15D-01
 E= -460.819452149038     Delta-E=       -0.065291607573 Rises=F Damp=T
 DIIS: error= 2.89D-02 at cycle   2 NSaved=   2.
 NSaved= 2 IEnMin= 2 EnMin= -460.819452149038     IErMin= 2 ErrMin= 2.89D-02
 ErrMax= 2.89D-02  0.00D+00 EMaxC= 1.00D-01 BMatC= 2.08D-01 BMatP= 9.52D-01
 IDIUse=3 WtCom= 7.11D-01 WtEn= 2.89D-01
 Coeff-Com: -0.732D+00 0.173D+01
 Coeff-En:   0.000D+00 0.100D+01
 Coeff:     -0.521D+00 0.152D+01
 Gap=     0.333 Goal=   None    Shift=    0.000
 RMSDP=2.43D-02 MaxDP=2.59D+00 DE=-6.53D-02 OVMax= 1.27D-01

 Cycle   3  Pass 1  IDiag  1:
 RMSU=  8.09D-03    CP:  6.01D-01  1.60D+00
 E= -460.862980514865     Delta-E=       -0.043528365827 Rises=F Damp=F
 DIIS: error= 7.13D-03 at cycle   3 NSaved=   3.
 NSaved= 3 IEnMin= 3 EnMin= -460.862980514865     IErMin= 3 ErrMin= 7.13D-03
 ErrMax= 7.13D-03  0.00D+00 EMaxC= 1.00D-01 BMatC= 2.59D-02 BMatP= 2.08D-01
 IDIUse=3 WtCom= 9.29D-01 WtEn= 7.13D-02
 Coeff-Com: -0.364D+00 0.774D+00 0.590D+00
 Coeff-En:   0.000D+00 0.000D+00 0.100D+01
 Coeff:     -0.338D+00 0.719D+00 0.619D+00
 Gap=     0.314 Goal=   None    Shift=    0.000
 RMSDP=4.88D-03 MaxDP=3.76D-01 DE=-4.35D-02 OVMax= 5.61D-02

 Cycle   4  Pass 1  IDiag  1:
 RMSU=  1.55D-03    CP:  5.75D-01  1.69D+00  5.50D-01
 E= -460.886550438528     Delta-E=       -0.023569923662 Rises=F Damp=F
 DIIS: error= 1.35D-03 at cycle   4 NSaved=   4.
 NSaved= 4 IEnMin= 4 EnMin= -460.886550438528     IErMin= 4 ErrMin= 1.35D-03
 ErrMax= 1.35D-03  0.00D+00 EMaxC= 1.00D-01 BMatC= 6.37D-04 BMatP= 2.59D-02
 IDIUse=3 WtCom= 9.87D-01 WtEn= 1.35D-02
 Coeff-Com: -0.130D+00 0.277D+00 0.276D+00 0.577D+00
 Coeff-En:   0.000D+00 0.000D+00 0.000D+00 0.100D+01
 Coeff:     -0.128D+00 0.274D+00 0.272D+00 0.583D+00
 Gap=     0.310 Goal=   None    Shift=    0.000
 RMSDP=6.34D-04 MaxDP=3.26D-02 DE=-2.36D-02 OVMax= 7.16D-03

 Cycle   5  Pass 1  IDiag  1:
 RMSU=  3.89D-04    CP:  5.77D-01  1.70D+00  5.98D-01  8.57D-01
 E= -460.887161016357     Delta-E=       -0.000610577830 Rises=F Damp=F
 DIIS: error= 2.05D-04 at cycle   5 NSaved=   5.
 NSaved= 5 IEnMin= 5 EnMin= -460.887161016357     IErMin= 5 ErrMin= 2.05D-04
 ErrMax= 2.05D-04  0.00D+00 EMaxC= 1.00D-01 BMatC= 1.61D-05 BMatP= 6.37D-04
 IDIUse=3 WtCom= 9.98D-01 WtEn= 2.05D-03
 Coeff-Com:  0.476D-02-0.990D-02 0.118D-01 0.145D+00 0.848D+00
 Coeff-En:   0.000D+00 0.000D+00 0.000D+00 0.000D+00 0.100D+01
 Coeff:      0.476D-02-0.988D-02 0.117D-01 0.145D+00 0.849D+00
 Gap=     0.310 Goal=   None    Shift=    0.000
 RMSDP=1.98D-04 MaxDP=7.82D-03 DE=-6.11D-04 OVMax= 2.44D-03

 Cycle   6  Pass 1  IDiag  1:
 RMSU=  1.55D-04    CP:  5.76D-01  1.70D+00  6.01D-01  9.08D-01  1.11D+00
 E= -460.887181899098     Delta-E=       -0.000020882740 Rises=F Damp=F
 DIIS: error= 1.23D-04 at cycle   6 NSaved=   6.
 NSaved= 6 IEnMin= 6 EnMin= -460.887181899098     IErMin= 6 ErrMin= 1.23D-04
 ErrMax= 1.23D-04  0.00D+00 EMaxC= 1.00D-01 BMatC= 3.33D-06 BMatP= 1.61D-05
 IDIUse=3 WtCom= 9.99D-01 WtEn= 1.23D-03
 Coeff-Com:  0.159D-01-0.340D-01-0.231D-01-0.484D-02 0.335D+00 0.711D+00
 Coeff-En:   0.000D+00 0.000D+00 0.000D+00 0.000D+00 0.000D+00 0.100D+01
 Coeff:      0.159D-01-0.340D-01-0.231D-01-0.483D-02 0.334D+00 0.712D+00
 Gap=     0.311 Goal=   None    Shift=    0.000
 RMSDP=1.10D-04 MaxDP=6.17D-03 DE=-2.09D-05 OVMax= 9.18D-04

 Cycle   7  Pass 1  IDiag  1:
 RMSU=  4.80D-05    CP:  5.76D-01  1.71D+00  5.98D-01  9.33D-01  1.19D+00
                    CP:  1.04D+00
 E= -460.887186572910     Delta-E=       -0.000004673813 Rises=F Damp=F
 DIIS: error= 3.94D-05 at cycle   7 NSaved=   7.
 NSaved= 7 IEnMin= 7 EnMin= -460.887186572910     IErMin= 7 ErrMin= 3.94D-05
 ErrMax= 3.94D-05  0.00D+00 EMaxC= 1.00D-01 BMatC= 2.27D-07 BMatP= 3.33D-06
 IDIUse=1 WtCom= 1.00D+00 WtEn= 0.00D+00
 Coeff-Com:  0.141D-02-0.298D-02-0.253D-02-0.136D-01-0.520D-01 0.839D-01
 Coeff-Com:  0.986D+00
 Coeff:      0.141D-02-0.298D-02-0.253D-02-0.136D-01-0.520D-01 0.839D-01
 Coeff:      0.986D+00
 Gap=     0.311 Goal=   None    Shift=    0.000
 RMSDP=2.27D-05 MaxDP=1.23D-03 DE=-4.67D-06 OVMax= 5.81D-04

 Cycle   8  Pass 1  IDiag  1:
 RMSU=  1.41D-05    CP:  5.76D-01  1.71D+00  5.98D-01  9.35D-01  1.21D+00
                    CP:  1.11D+00  1.07D+00
 E= -460.887187306823     Delta-E=       -0.000000733913 Rises=F Damp=F
 DIIS: error= 2.80D-05 at cycle   8 NSaved=   8.
 NSaved= 8 IEnMin= 8 EnMin= -460.887187306823     IErMin= 8 ErrMin= 2.80D-05
 ErrMax= 2.80D-05  0.00D+00 EMaxC= 1.00D-01 BMatC= 7.45D-08 BMatP= 2.27D-07
 IDIUse=1 WtCom= 1.00D+00 WtEn= 0.00D+00
 Coeff-Com: -0.194D-02 0.417D-02 0.293D-02-0.445D-02-0.775D-01-0.888D-01
 Coeff-Com:  0.414D+00 0.751D+00
 Coeff:     -0.194D-02 0.417D-02 0.293D-02-0.445D-02-0.775D-01-0.888D-01
 Coeff:      0.414D+00 0.751D+00
 Gap=     0.311 Goal=   None    Shift=    0.000
 RMSDP=1.27D-05 MaxDP=1.32D-03 DE=-7.34D-07 OVMax= 2.12D-04

 Cycle   9  Pass 1  IDiag  1:
 RMSU=  7.73D-06    CP:  5.76D-01  1.71D+00  5.98D-01  9.36D-01  1.22D+00
                    CP:  1.15D+00  1.14D+00  9.37D-01
 E= -460.887187462995     Delta-E=       -0.000000156172 Rises=F Damp=F
 DIIS: error= 8.13D-06 at cycle   9 NSaved=   9.
 NSaved= 9 IEnMin= 9 EnMin= -460.887187462995     IErMin= 9 ErrMin= 8.13D-06
 ErrMax= 8.13D-06  0.00D+00 EMaxC= 1.00D-01 BMatC= 5.19D-09 BMatP= 7.45D-08
 IDIUse=1 WtCom= 1.00D+00 WtEn= 0.00D+00
 Coeff-Com: -0.725D-03 0.155D-02 0.126D-02 0.127D-02-0.113D-01-0.380D-01
 Coeff-Com: -0.506D-01 0.134D+00 0.963D+00
 Coeff:     -0.725D-03 0.155D-02 0.126D-02 0.127D-02-0.113D-01-0.380D-01
 Coeff:     -0.506D-01 0.134D+00 0.963D+00
 Gap=     0.311 Goal=   None    Shift=    0.000
 RMSDP=4.31D-06 MaxDP=2.69D-04 DE=-1.56D-07 OVMax= 1.15D-04

 Cycle  10  Pass 1  IDiag  1:
 RMSU=  3.16D-06    CP:  5.76D-01  1.71D+00  5.98D-01  9.36D-01  1.21D+00
                    CP:  1.15D+00  1.15D+00  1.05D+00  1.09D+00
 E= -460.887187485768     Delta-E=       -0.000000022772 Rises=F Damp=F
 DIIS: error= 4.43D-06 at cycle  10 NSaved=  10.
 NSaved=10 IEnMin=10 EnMin= -460.887187485768     IErMin=10 ErrMin= 4.43D-06
 ErrMax= 4.43D-06  0.00D+00 EMaxC= 1.00D-01 BMatC= 7.69D-10 BMatP= 5.19D-09
 IDIUse=1 WtCom= 1.00D+00 WtEn= 0.00D+00
 Coeff-Com:  0.360D-04-0.817D-04-0.808D-05 0.874D-03 0.599D-02 0.900D-03
 Coeff-Com: -0.513D-01-0.676D-01 0.217D+00 0.894D+00
 Coeff:      0.360D-04-0.817D-04-0.808D-05 0.874D-03 0.599D-02 0.900D-03
 Coeff:     -0.513D-01-0.676D-01 0.217D+00 0.894D+00
 Gap=     0.311 Goal=   None    Shift=    0.000
 RMSDP=1.65D-06 MaxDP=1.16D-04 DE=-2.28D-08 OVMax= 3.68D-05

 Cycle  11  Pass 1  IDiag  1:
 RMSU=  7.11D-07    CP:  5.76D-01  1.71D+00  5.98D-01  9.35D-01  1.21D+00
                    CP:  1.15D+00  1.14D+00  1.06D+00  1.18D+00  1.15D+00
 E= -460.887187488404     Delta-E=       -0.000000002637 Rises=F Damp=F
 DIIS: error= 1.02D-06 at cycle  11 NSaved=  11.
 NSaved=11 IEnMin=11 EnMin= -460.887187488404     IErMin=11 ErrMin= 1.02D-06
 ErrMax= 1.02D-06  0.00D+00 EMaxC= 1.00D-01 BMatC= 1.89D-10 BMatP= 7.69D-10
 IDIUse=1 WtCom= 1.00D+00 WtEn= 0.00D+00
 Coeff-Com:  0.126D-03-0.271D-03-0.202D-03 0.142D-03 0.394D-02 0.575D-02
 Coeff-Com: -0.105D-01-0.471D-01-0.715D-01 0.345D+00 0.774D+00
 Coeff:      0.126D-03-0.271D-03-0.202D-03 0.142D-03 0.394D-02 0.575D-02
 Coeff:     -0.105D-01-0.471D-01-0.715D-01 0.345D+00 0.774D+00
 Gap=     0.311 Goal=   None    Shift=    0.000
 RMSDP=5.99D-07 MaxDP=2.52D-05 DE=-2.64D-09 OVMax= 1.43D-05

 Cycle  12  Pass 1  IDiag  1:
 RMSU=  3.14D-07    CP:  5.76D-01  1.71D+00  5.98D-01  9.35D-01  1.21D+00
                    CP:  1.15D+00  1.14D+00  1.06D+00  1.19D+00  1.22D+00
                    CP:  1.16D+00
 E= -460.887187488895     Delta-E=       -0.000000000491 Rises=F Damp=F
 DIIS: error= 4.25D-07 at cycle  12 NSaved=  12.
 NSaved=12 IEnMin=12 EnMin= -460.887187488895     IErMin=12 ErrMin= 4.25D-07
 ErrMax= 4.25D-07  0.00D+00 EMaxC= 1.00D-01 BMatC= 1.46D-11 BMatP= 1.89D-10
 IDIUse=1 WtCom= 1.00D+00 WtEn= 0.00D+00
 Coeff-Com:  0.565D-05-0.114D-04-0.194D-04-0.117D-03-0.526D-03 0.153D-03
 Coeff-Com:  0.676D-02 0.696D-02-0.428D-01-0.101D+00 0.192D-01 0.111D+01
 Coeff:      0.565D-05-0.114D-04-0.194D-04-0.117D-03-0.526D-03 0.153D-03
 Coeff:      0.676D-02 0.696D-02-0.428D-01-0.101D+00 0.192D-01 0.111D+01
 Gap=     0.311 Goal=   None    Shift=    0.000
 RMSDP=2.70D-07 MaxDP=1.17D-05 DE=-4.91D-10 OVMax= 8.01D-06

 Cycle  13  Pass 1  IDiag  1:
 RMSU=  1.00D-07    CP:  5.76D-01  1.71D+00  5.98D-01  9.35D-01  1.21D+00
                    CP:  1.15D+00  1.13D+00  1.06D+00  1.18D+00  1.26D+00
                    CP:  1.34D+00  1.39D+00
 E= -460.887187488978     Delta-E=       -0.000000000083 Rises=F Damp=F
 DIIS: error= 1.41D-07 at cycle  13 NSaved=  13.
 NSaved=13 IEnMin=13 EnMin= -460.887187488978     IErMin=13 ErrMin= 1.41D-07
 ErrMax= 1.41D-07  0.00D+00 EMaxC= 1.00D-01 BMatC= 5.22D-12 BMatP= 1.46D-11
 IDIUse=1 WtCom= 1.00D+00 WtEn= 0.00D+00
 Coeff-Com: -0.121D-04 0.263D-04 0.154D-04-0.676D-04-0.672D-03-0.634D-03
 Coeff-Com:  0.436D-02 0.942D-02-0.807D-02-0.835D-01-0.929D-01 0.494D+00
 Coeff-Com:  0.678D+00
 Coeff:     -0.121D-04 0.263D-04 0.154D-04-0.676D-04-0.672D-03-0.634D-03
 Coeff:      0.436D-02 0.942D-02-0.807D-02-0.835D-01-0.929D-01 0.494D+00
 Coeff:      0.678D+00
 Gap=     0.311 Goal=   None    Shift=    0.000
 RMSDP=7.17D-08 MaxDP=4.07D-06 DE=-8.32D-11 OVMax= 1.94D-06

 Cycle  14  Pass 1  IDiag  1:
 RMSU=  4.03D-08    CP:  5.76D-01  1.71D+00  5.98D-01  9.35D-01  1.21D+00
                    CP:  1.15D+00  1.13D+00  1.05D+00  1.18D+00  1.26D+00
                    CP:  1.38D+00  1.50D+00  1.08D+00
 E= -460.887187488996     Delta-E=       -0.000000000018 Rises=F Damp=F
 DIIS: error= 9.26D-08 at cycle  14 NSaved=  14.
 NSaved=14 IEnMin=14 EnMin= -460.887187488996     IErMin=14 ErrMin= 9.26D-08
 ErrMax= 9.26D-08  0.00D+00 EMaxC= 1.00D-01 BMatC= 5.03D-13 BMatP= 5.22D-12
 IDIUse=1 WtCom= 1.00D+00 WtEn= 0.00D+00
 Coeff-Com: -0.372D-05 0.794D-05 0.667D-05 0.215D-05-0.497D-04-0.176D-03
 Coeff-Com: -0.451D-03 0.802D-03 0.637D-02 0.519D-03-0.256D-01-0.116D+00
 Coeff-Com:  0.127D+00 0.101D+01
 Coeff:     -0.372D-05 0.794D-05 0.667D-05 0.215D-05-0.497D-04-0.176D-03
 Coeff:     -0.451D-03 0.802D-03 0.637D-02 0.519D-03-0.256D-01-0.116D+00
 Coeff:      0.127D+00 0.101D+01
 Gap=     0.311 Goal=   None    Shift=    0.000
 RMSDP=4.96D-08 MaxDP=2.30D-06 DE=-1.77D-11 OVMax= 1.35D-06

 Cycle  15  Pass 1  IDiag  1:
 RMSU=  2.10D-08    CP:  5.76D-01  1.71D+00  5.98D-01  9.35D-01  1.21D+00
                    CP:  1.15D+00  1.13D+00  1.05D+00  1.18D+00  1.26D+00
                    CP:  1.38D+00  1.52D+00  1.24D+00  1.21D+00
 E= -460.887187488987     Delta-E=        0.000000000010 Rises=F Damp=F
 DIIS: error= 2.98D-08 at cycle  15 NSaved=  15.
 NSaved=15 IEnMin=14 EnMin= -460.887187488996     IErMin=15 ErrMin= 2.98D-08
 ErrMax= 2.98D-08  0.00D+00 EMaxC= 1.00D-01 BMatC= 9.19D-14 BMatP= 5.03D-13
 IDIUse=1 WtCom= 1.00D+00 WtEn= 0.00D+00
 Coeff-Com:  0.495D-07-0.186D-06 0.497D-06 0.782D-05 0.602D-04 0.196D-04
 Coeff-Com: -0.682D-03-0.811D-03 0.248D-02 0.928D-02 0.468D-02-0.903D-01
 Coeff-Com: -0.575D-01 0.303D+00 0.830D+00
 Coeff:      0.495D-07-0.186D-06 0.497D-06 0.782D-05 0.602D-04 0.196D-04
 Coeff:     -0.682D-03-0.811D-03 0.248D-02 0.928D-02 0.468D-02-0.903D-01
 Coeff:     -0.575D-01 0.303D+00 0.830D+00
 Gap=     0.311 Goal=   None    Shift=    0.000
 RMSDP=1.61D-08 MaxDP=1.27D-06 DE= 9.55D-12 OVMax= 4.27D-07

 Cycle  16  Pass 1  IDiag  1:
 RMSU=  7.29D-09    CP:  5.76D-01  1.71D+00  5.98D-01  9.35D-01  1.21D+00
                    CP:  1.15D+00  1.13D+00  1.05D+00  1.18D+00  1.26D+00
                    CP:  1.37D+00  1.52D+00  1.28D+00  1.33D+00  1.28D+00
 E= -460.887187488988     Delta-E=       -0.000000000001 Rises=F Damp=F
 DIIS: error= 1.25D-08 at cycle  16 NSaved=  16.
 NSaved=16 IEnMin=14 EnMin= -460.887187488996     IErMin=16 ErrMin= 1.25D-08
 ErrMax= 1.25D-08  0.00D+00 EMaxC= 1.00D-01 BMatC= 1.70D-14 BMatP= 9.19D-14
 IDIUse=1 WtCom= 1.00D+00 WtEn= 0.00D+00
 Coeff-Com:  0.608D-06-0.133D-05-0.949D-06 0.185D-05 0.266D-04 0.432D-04
 Coeff-Com: -0.124D-03-0.371D-03-0.377D-03 0.284D-02 0.770D-02-0.762D-02
 Coeff-Com: -0.540D-01-0.962D-01 0.257D+00 0.891D+00
 Coeff:      0.608D-06-0.133D-05-0.949D-06 0.185D-05 0.266D-04 0.432D-04
 Coeff:     -0.124D-03-0.371D-03-0.377D-03 0.284D-02 0.770D-02-0.762D-02
 Coeff:     -0.540D-01-0.962D-01 0.257D+00 0.891D+00
 Gap=     0.311 Goal=   None    Shift=    0.000
 RMSDP=8.26D-09 MaxDP=7.12D-07 DE=-1.25D-12 OVMax= 1.90D-07

 SCF Done:  E(RwB97XD) =  -460.887187489     A.U. after   16 cycles
            NFock= 16  Conv=0.83D-08     -V/T= 1.9983
 KE= 4.616909379674D+02 PE=-2.200403233527D+03 EE= 7.149196956046D+02
 Leave Link  502 at Mon Nov 21 14:54:09 2022, MaxMem= 16106127360 cpu:             732.5 elap:              23.0
 (Enter /opt/ap/G16/B01/g16/l601.exe)
 Copying SCF densities to generalized density rwf, IOpCl= 0 IROHF=0.

 **********************************************************************

            Population analysis using the SCF Density.

 **********************************************************************

 Orbital symmetries:
       Occupied  (A) (A) (A) (A) (A) (A) (A) (A) (A) (A) (A) (A)
                 (A) (A) (A) (A) (A) (A) (A) (A) (A) (A) (A) (A)
                 (A) (A) (A) (A) (A) (A) (A) (A) (A) (A) (A) (A)
                 (A) (A)
       Virtual   (A) (A) (A) (A) (A) (A) (A) (A) (A) (A) (A) (A)
                 (A) (A) (A) (A) (A) (A) (A) (A) (A) (A) (A) (A)
                 (A) (A) (A) (A) (A) (A) (A) (A) (A) (A) (A) (A)
                 (A) (A) (A) (A) (A) (A) (A) (A) (A) (A) (A) (A)
                 (A) (A) (A) (A) (A) (A) (A) (A) (A) (A) (A) (A)
                 (A) (A) (A) (A) (A) (A) (A) (A) (A) (A) (A) (A)
                 (A) (A) (A) (A) (A) (A) (A) (A) (A) (A) (A) (A)
                 (A) (A) (A) (A) (A) (A) (A) (A) (A) (A) (A) (A)
                 (A) (A) (A) (A) (A) (A) (A) (A) (A) (A) (A) (A)
                 (A) (A) (A) (A) (A) (A) (A) (A) (A) (A) (A) (A)
                 (A) (A) (A) (A) (A) (A) (A) (A) (A) (A) (A) (A)
                 (A) (A) (A) (A) (A) (A) (A) (A) (A) (A) (A) (A)
                 (A) (A) (A) (A) (A) (A) (A) (A) (A) (A) (A) (A)
                 (A) (A) (A) (A) (A) (A) (A) (A) (A) (A) (A) (A)
                 (A) (A) (A) (A) (A) (A) (A) (A) (A) (A) (A) (A)
                 (A) (A) (A) (A) (A) (A) (A) (A) (A) (A) (A) (A)
                 (A) (A) (A) (A) (A) (A) (A) (A) (A) (A) (A) (A)
                 (A) (A) (A) (A) (A) (A) (A) (A) (A) (A) (A) (A)
                 (A) (A) (A) (A) (A) (A) (A) (A) (A) (A) (A) (A)
                 (A) (A) (A) (A) (A) (A) (A) (A) (A) (A) (A) (A)
                 (A) (A) (A) (A) (A) (A) (A) (A) (A) (A) (A) (A)
                 (A) (A) (A) (A) (A) (A)
 The electronic state is 1-A.
 Alpha  occ. eigenvalues --  -19.25533 -10.34672 -10.29811 -10.29604 -10.27466
 Alpha  occ. eigenvalues --  -10.27171 -10.27135 -10.27108 -10.26888 -10.26859
 Alpha  occ. eigenvalues --  -10.26812  -1.19227  -0.98834  -0.94296  -0.88525
 Alpha  occ. eigenvalues --   -0.86284  -0.84290  -0.75204  -0.73523  -0.72473
 Alpha  occ. eigenvalues --   -0.66908  -0.64589  -0.61578  -0.60289  -0.55542
 Alpha  occ. eigenvalues --   -0.54876  -0.52679  -0.52505  -0.51417  -0.48543
 Alpha  occ. eigenvalues --   -0.47785  -0.44873  -0.43322  -0.42312  -0.39875
 Alpha  occ. eigenvalues --   -0.36244  -0.32752  -0.29344
 Alpha virt. eigenvalues --    0.01715   0.03950   0.04438   0.04741   0.04924
 Alpha virt. eigenvalues --    0.06253   0.06470   0.08328   0.08717   0.08974
 Alpha virt. eigenvalues --    0.10278   0.11533   0.12062   0.13024   0.13839
 Alpha virt. eigenvalues --    0.14998   0.15058   0.15575   0.16037   0.16498
 Alpha virt. eigenvalues --    0.16666   0.17114   0.17515   0.17946   0.18389
 Alpha virt. eigenvalues --    0.18621   0.19058   0.19305   0.20071   0.20674
 Alpha virt. eigenvalues --    0.21704   0.21862   0.22410   0.22568   0.22907
 Alpha virt. eigenvalues --    0.24542   0.25713   0.26048   0.26226   0.27001
 Alpha virt. eigenvalues --    0.27502   0.28783   0.29178   0.29488   0.30103
 Alpha virt. eigenvalues --    0.31156   0.31789   0.32013   0.32646   0.32818
 Alpha virt. eigenvalues --    0.33883   0.34420   0.34969   0.35350   0.35989
 Alpha virt. eigenvalues --    0.36493   0.37697   0.38153   0.38940   0.39490
 Alpha virt. eigenvalues --    0.40202   0.41295   0.41767   0.42785   0.43303
 Alpha virt. eigenvalues --    0.44246   0.44738   0.47184   0.47803   0.48144
 Alpha virt. eigenvalues --    0.50917   0.57431   0.58274   0.60008   0.61246
 Alpha virt. eigenvalues --    0.61926   0.62601   0.65373   0.65820   0.66275
 Alpha virt. eigenvalues --    0.66599   0.67675   0.68000   0.68361   0.70355
 Alpha virt. eigenvalues --    0.70590   0.70858   0.71575   0.72213   0.72608
 Alpha virt. eigenvalues --    0.74535   0.75418   0.76569   0.79096   0.81203
 Alpha virt. eigenvalues --    0.82490   0.82922   0.85507   0.86645   0.87388
 Alpha virt. eigenvalues --    0.89156   0.90836   0.91499   0.92547   0.93285
 Alpha virt. eigenvalues --    0.95932   0.96325   0.97198   0.99662   1.00549
 Alpha virt. eigenvalues --    1.01804   1.02134   1.03927   1.04966   1.05832
 Alpha virt. eigenvalues --    1.06551   1.06676   1.10035   1.11313   1.12482
 Alpha virt. eigenvalues --    1.13884   1.15016   1.18588   1.19529   1.20113
 Alpha virt. eigenvalues --    1.20882   1.23493   1.23709   1.24086   1.24804
 Alpha virt. eigenvalues --    1.28091   1.35363   1.36390   1.42644   1.46345
 Alpha virt. eigenvalues --    1.49053   1.53953   1.57302   1.58108   1.59279
 Alpha virt. eigenvalues --    1.61427   1.62557   1.63019   1.63636   1.69944
 Alpha virt. eigenvalues --    1.70204   1.70887   1.71258   1.73368   1.74419
 Alpha virt. eigenvalues --    1.76925   1.78781   1.80329   1.80920   1.84805
 Alpha virt. eigenvalues --    1.90180   1.90506   1.91810   1.92553   1.93336
 Alpha virt. eigenvalues --    1.95728   1.97491   1.98509   1.99987   2.03493
 Alpha virt. eigenvalues --    2.03999   2.05502   2.07712   2.08726   2.09192
 Alpha virt. eigenvalues --    2.10348   2.11790   2.12756   2.16432   2.19861
 Alpha virt. eigenvalues --    2.24528   2.26235   2.28660   2.30550   2.34765
 Alpha virt. eigenvalues --    2.36846   2.39415   2.43655   2.47695   2.51148
 Alpha virt. eigenvalues --    2.52588   2.53287   2.54618   2.56439   2.57689
 Alpha virt. eigenvalues --    2.66565   2.69972   2.71969   2.74280   2.76850
 Alpha virt. eigenvalues --    2.80747   2.81358   2.84525   2.88480   2.89597
 Alpha virt. eigenvalues --    2.92847   2.93878   2.95405   2.99029   3.01434
 Alpha virt. eigenvalues --    3.02539   3.03789   3.04242   3.06629   3.07259
 Alpha virt. eigenvalues --    3.08492   3.11531   3.17755   3.18491   3.19440
 Alpha virt. eigenvalues --    3.22248   3.24206   3.27959   3.33867   3.35298
 Alpha virt. eigenvalues --    3.38689   3.46864   3.48240   3.51219   3.53454
 Alpha virt. eigenvalues --    3.56019   3.59796   3.74057   3.77150   3.79050
 Alpha virt. eigenvalues --    3.83987   3.88937   3.90848   3.99843   4.13074
 Alpha virt. eigenvalues --    4.28418   4.43480   4.44592   4.46136   4.52241
 Alpha virt. eigenvalues --    4.57529   4.62183   4.94453   4.97370   5.26657
 Alpha virt. eigenvalues --    5.59817   6.16084  23.80252  24.07392  24.15628
 Alpha virt. eigenvalues --   24.17425  24.22005  24.26530  24.41234  24.44412
 Alpha virt. eigenvalues --   24.51699  24.53493  50.20222
          Condensed to atoms (all electrons):
               1          2          3          4          5          6
     1  C   22.877563  -5.134656  -3.056912  -3.954491  -2.154421  -0.239064
     2  C   -5.134656  21.746586  -2.398835   0.055032  -2.752060  -5.014273
     3  C   -3.056912  -2.398835  10.281160   2.163473  -0.032521  -0.307822
     4  C   -3.954491   0.055032   2.163473   9.120971  -0.420758  -0.670726
     5  C   -2.154421  -2.752060  -0.032521  -0.420758   9.571689   2.175470
     6  C   -0.239064  -5.014273  -0.307822  -0.670726   2.175470  12.376867
     7  C   -1.456216   0.375067   0.211388  -0.661459   0.205417  -0.168320
     8  O   -0.071623  -0.161855   0.242664  -0.031696   0.008343   0.136984
     9  C    0.991532  -0.719938  -0.784020   0.056963  -0.079488   0.387253
    10  H   -0.145426   0.060025   0.056636   0.499091   0.025201  -0.056295
    11  C   -0.589422  -0.128357   0.291962  -0.052708   0.343287  -1.268994
    12  H   -0.031177  -0.065361  -0.052215   0.009503   0.508249   0.078567
    13  C   -1.330519   0.548283  -0.414754   0.370995  -1.199915  -1.741795
    14  H   -0.067695  -0.031315  -0.094598  -0.011211   0.014012   0.382470
    15  H   -0.047719  -0.015346  -0.059296   0.023581  -0.034737   0.006187
    16  H   -0.205768  -0.052227   0.061344   0.017996  -0.022661   0.046446
    17  H    0.099543  -0.028513  -0.011281  -0.121568   0.024497   0.006233
    18  H   -0.021968   0.032297  -0.010015   0.021155  -0.059555  -0.029613
    19  H    0.041591  -0.034547   0.014174  -0.017889  -0.022470  -0.050607
               7          8          9         10         11         12
     1  C   -1.456216  -0.071623   0.991532  -0.145426  -0.589422  -0.031177
     2  C    0.375067  -0.161855  -0.719938   0.060025  -0.128357  -0.065361
     3  C    0.211388   0.242664  -0.784020   0.056636   0.291962  -0.052215
     4  C   -0.661459  -0.031696   0.056963   0.499091  -0.052708   0.009503
     5  C    0.205417   0.008343  -0.079488   0.025201   0.343287   0.508249
     6  C   -0.168320   0.136984   0.387253  -0.056295  -1.268994   0.078567
     7  C    7.111318  -0.260753   0.159666   0.028891   0.085943  -0.003005
     8  O   -0.260753   8.062165   0.030069  -0.000941   0.002062   0.000750
     9  C    0.159666   0.030069   6.093616  -0.130325  -0.320862   0.051735
    10  H    0.028891  -0.000941  -0.130325   0.499870   0.045963  -0.003452
    11  C    0.085943   0.002062  -0.320862   0.045963   6.658057  -0.119458
    12  H   -0.003005   0.000750   0.051735  -0.003452  -0.119458   0.505034
    13  C   -0.251237   0.095797   0.025298   0.001847   0.827940  -0.009167
    14  H   -0.005552   0.011906   0.003093   0.000603   0.029590   0.000944
    15  H    0.531929  -0.036605  -0.067391   0.003234  -0.001296  -0.000827
    16  H    0.101009   0.244093  -0.005409   0.000721   0.005996  -0.000341
    17  H   -0.107259   0.003468   0.477560  -0.021394   0.000776   0.001811
    18  H   -0.002964  -0.000155   0.001967   0.000850   0.463461  -0.018539
    19  H    0.007192   0.000729  -0.001767  -0.000425  -0.049890   0.000398
              13         14         15         16         17         18
     1  C   -1.330519  -0.067695  -0.047719  -0.205768   0.099543  -0.021968
     2  C    0.548283  -0.031315  -0.015346  -0.052227  -0.028513   0.032297
     3  C   -0.414754  -0.094598  -0.059296   0.061344  -0.011281  -0.010015
     4  C    0.370995  -0.011211   0.023581   0.017996  -0.121568   0.021155
     5  C   -1.199915   0.014012  -0.034737  -0.022661   0.024497  -0.059555
     6  C   -1.741795   0.382470   0.006187   0.046446   0.006233  -0.029613
     7  C   -0.251237  -0.005552   0.531929   0.101009  -0.107259  -0.002964
     8  O    0.095797   0.011906  -0.036605   0.244093   0.003468  -0.000155
     9  C    0.025298   0.003093  -0.067391  -0.005409   0.477560   0.001967
    10  H    0.001847   0.000603   0.003234   0.000721  -0.021394   0.000850
    11  C    0.827940   0.029590  -0.001296   0.005996   0.000776   0.463461
    12  H   -0.009167   0.000944  -0.000827  -0.000341   0.001811  -0.018539
    13  C    8.870155   0.134226   0.019243   0.074768  -0.006157  -0.047108
    14  H    0.134226   0.546967   0.001590   0.001167  -0.000157   0.000184
    15  H    0.019243   0.001590   0.491470   0.006304  -0.020245  -0.000029
    16  H    0.074768   0.001167   0.006304   0.456323  -0.001461   0.000060
    17  H   -0.006157  -0.000157  -0.020245  -0.001461   0.510916  -0.000014
    18  H   -0.047108   0.000184  -0.000029   0.000060  -0.000014   0.503342
    19  H    0.453466  -0.018429   0.000072   0.000318  -0.000052  -0.012675
              19
     1  C    0.041591
     2  C   -0.034547
     3  C    0.014174
     4  C   -0.017889
     5  C   -0.022470
     6  C   -0.050607
     7  C    0.007192
     8  O    0.000729
     9  C   -0.001767
    10  H   -0.000425
    11  C   -0.049890
    12  H    0.000398
    13  C    0.453466
    14  H   -0.018429
    15  H    0.000072
    16  H    0.000318
    17  H   -0.000052
    18  H   -0.012675
    19  H    0.500793
 Mulliken charges:
               1
     1  C    0.496846
     2  C   -0.280006
     3  C   -0.100531
     4  C   -0.396256
     5  C   -0.097578
     6  C   -0.048968
     7  C    0.098948
     8  O   -0.275402
     9  C   -0.169553
    10  H    0.135325
    11  C   -0.224049
    12  H    0.146550
    13  C   -0.421365
    14  H    0.102207
    15  H    0.199881
    16  H    0.271323
    17  H    0.193295
    18  H    0.179319
    19  H    0.190015
 Sum of Mulliken charges =  -0.00000
 Mulliken charges with hydrogens summed into heavy atoms:
               1
     1  C    0.496846
     2  C   -0.280006
     3  C   -0.100531
     4  C   -0.260931
     5  C    0.048972
     6  C    0.053239
     7  C    0.298828
     8  O   -0.004079
     9  C    0.023742
    11  C   -0.044730
    13  C   -0.231350
 Electronic spatial extent (au):  <R**2>=           1504.0271
 Charge=             -0.0000 electrons
 Dipole moment (field-independent basis, Debye):
    X=              0.7628    Y=             -0.6220    Z=              1.2195  Tot=              1.5671
 Quadrupole moment (field-independent basis, Debye-Ang):
   XX=            -56.5465   YY=            -57.0639   ZZ=            -66.5762
   XY=              2.8959   XZ=             -1.8222   YZ=              3.5710
 Traceless Quadrupole moment (field-independent basis, Debye-Ang):
   XX=              3.5157   YY=              2.9983   ZZ=             -6.5140
   XY=              2.8959   XZ=             -1.8222   YZ=              3.5710
 Octapole moment (field-independent basis, Debye-Ang**2):
  XXX=              2.8931  YYY=              3.3542  ZZZ=              1.1492  XYY=              4.7666
  XXY=             -6.1028  XXZ=              2.2710  XZZ=             -5.1066  YZZ=              7.4861
  YYZ=             10.1146  XYZ=             -5.4831
 Hexadecapole moment (field-independent basis, Debye-Ang**3):
 XXXX=          -1104.4109 YYYY=           -651.3039 ZZZZ=            -77.0124 XXXY=             16.4444
 XXXZ=             -3.4062 YYYX=              3.8761 YYYZ=             26.7335 ZZZX=             -1.8923
 ZZZY=              3.9481 XXYY=           -310.3368 XXZZ=           -234.6703 YYZZ=           -134.8789
 XXYZ=              7.2768 YYXZ=            -14.3903 ZZXY=            -11.1543
 N-N= 5.629054124660D+02 E-N=-2.200403233689D+03  KE= 4.616909379674D+02
 No NMR shielding tensors so no spin-rotation constants.
 Leave Link  601 at Mon Nov 21 14:54:09 2022, MaxMem= 16106127360 cpu:               3.8 elap:               0.1
 (Enter /opt/ap/G16/B01/g16/l9999.exe)
 1\1\GINC-N11\SP\RwB97XD\6-311++G(d,p)\C10H8O1\ROOT\21-Nov-2022\0\\#P w
 B97XD/6-311++G(d,p) scf=maxcycle=512\\_conf022.gjf nmol_natom 1_19\\0,
 1\C\C,1,1.40879539\C,1,1.42289824,2,117.24956717\C,2,1.41887971,1,119.
 07594714,3,0.16510261,0\C,2,1.42227783,1,117.46262303,3,-179.44443577,
 0\C,1,1.42440336,2,119.00293897,4,179.73740031,0\C,3,1.35510367,1,122.
 33979448,2,-0.36120568,0\O,3,1.37615658,1,115.04370777,2,-179.5931286,
 0\C,4,1.34577659,2,121.30210156,1,0.17277764,0\H,4,0.93023405,2,119.33
 469462,1,-179.75965297,0\C,5,1.34486794,2,122.06073707,1,-0.32265162,0
 \H,5,0.92957893,2,118.96449269,1,179.64671542,0\C,6,1.35980576,1,121.1
 112438,2,0.11625163,0\H,6,0.92999796,1,119.43671105,2,-179.87270235,0\
 H,7,0.93052813,3,120.28038366,1,-179.76477098,0\H,8,0.81991994,3,109.4
 8785721,1,-70.,0\H,9,0.93027331,4,119.71917791,2,179.60144151,0\H,11,0
 .92987565,5,119.70372857,2,-179.69197286,0\H,13,0.93032717,6,120.14524
 692,1,179.85241379,0\\Version=ES64L-G16RevB.01\State=1-A\HF=-460.88718
 75\RMSD=8.261e-09\Dipole=-0.2357009,-0.4769593,0.3115876\Quadrupole=3.
 5402209,-4.7765859,1.236365,-0.6684589,1.8495041,2.9734519\PG=C01 [X(C
 10H8O1)]\\@


 THERE'S SMALL CHOICE IN A BOWL OF ROTTEN APPLES.
                     SHAKESPEARE
 Job cpu time:       0 days  0 hours 13 minutes 29.6 seconds.
 Elapsed time:       0 days  0 hours  0 minutes 25.5 seconds.
 File lengths (MBytes):  RWF=     51 Int=      0 D2E=      0 Chk=      6 Scr=      1
 Normal termination of Gaussian 16 at Mon Nov 21 14:54:09 2022.
