 Entering Gaussian System, Link 0=g16
 Input=_conf004.gjf
 Output=_conf004.log
 Initial command:
 /opt/ap/G16/B01/g16/l1.exe "/tmp2/scr/Gau-3611.inp" -scrdir="/tmp2/scr/"
 Entering Link 1 = /opt/ap/G16/B01/g16/l1.exe PID=      3612.
  
 Copyright (c) 1988-2017, Gaussian, Inc.  All Rights Reserved.
  
 This is part of the Gaussian(R) 16 program.  It is based on
 the Gaussian(R) 09 system (copyright 2009, Gaussian, Inc.),
 the Gaussian(R) 03 system (copyright 2003, Gaussian, Inc.),
 the Gaussian(R) 98 system (copyright 1998, Gaussian, Inc.),
 the Gaussian(R) 94 system (copyright 1995, Gaussian, Inc.),
 the Gaussian 92(TM) system (copyright 1992, Gaussian, Inc.),
 the Gaussian 90(TM) system (copyright 1990, Gaussian, Inc.),
 the Gaussian 88(TM) system (copyright 1988, Gaussian, Inc.),
 the Gaussian 86(TM) system (copyright 1986, Carnegie Mellon
 University), and the Gaussian 82(TM) system (copyright 1983,
 Carnegie Mellon University). Gaussian is a federally registered
 trademark of Gaussian, Inc.
  
 This software contains proprietary and confidential information,
 including trade secrets, belonging to Gaussian, Inc.
  
 This software is provided under written license and may be
 used, copied, transmitted, or stored only in accord with that
 written license.
  
 The following legend is applicable only to US Government
 contracts under FAR:
  
                    RESTRICTED RIGHTS LEGEND
  
 Use, reproduction and disclosure by the US Government is
 subject to restrictions as set forth in subparagraphs (a)
 and (c) of the Commercial Computer Software - Restricted
 Rights clause in FAR 52.227-19.
  
 Gaussian, Inc.
 340 Quinnipiac St., Bldg. 40, Wallingford CT 06492
  
  
 ---------------------------------------------------------------
 Warning -- This program may not be used in any manner that
 competes with the business of Gaussian, Inc. or will provide
 assistance to any competitor of Gaussian, Inc.  The licensee
 of this program is prohibited from giving any competitor of
 Gaussian, Inc. access to this program.  By using this program,
 the user acknowledges that Gaussian, Inc. is engaged in the
 business of creating and licensing software in the field of
 computational chemistry and represents and warrants to the
 licensee that it is not a competitor of Gaussian, Inc. and that
 it will not use this program in any manner prohibited above.
 ---------------------------------------------------------------
  

 Cite this work as:
 Gaussian 16, Revision B.01,
 M. J. Frisch, G. W. Trucks, H. B. Schlegel, G. E. Scuseria, 
 M. A. Robb, J. R. Cheeseman, G. Scalmani, V. Barone, 
 G. A. Petersson, H. Nakatsuji, X. Li, M. Caricato, A. V. Marenich, 
 J. Bloino, B. G. Janesko, R. Gomperts, B. Mennucci, H. P. Hratchian, 
 J. V. Ortiz, A. F. Izmaylov, J. L. Sonnenberg, D. Williams-Young, 
 F. Ding, F. Lipparini, F. Egidi, J. Goings, B. Peng, A. Petrone, 
 T. Henderson, D. Ranasinghe, V. G. Zakrzewski, J. Gao, N. Rega, 
 G. Zheng, W. Liang, M. Hada, M. Ehara, K. Toyota, R. Fukuda, 
 J. Hasegawa, M. Ishida, T. Nakajima, Y. Honda, O. Kitao, H. Nakai, 
 T. Vreven, K. Throssell, J. A. Montgomery, Jr., J. E. Peralta, 
 F. Ogliaro, M. J. Bearpark, J. J. Heyd, E. N. Brothers, K. N. Kudin, 
 V. N. Staroverov, T. A. Keith, R. Kobayashi, J. Normand, 
 K. Raghavachari, A. P. Rendell, J. C. Burant, S. S. Iyengar, 
 J. Tomasi, M. Cossi, J. M. Millam, M. Klene, C. Adamo, R. Cammi, 
 J. W. Ochterski, R. L. Martin, K. Morokuma, O. Farkas, 
 J. B. Foresman, and D. J. Fox, Gaussian, Inc., Wallingford CT, 2016.
 
 ******************************************
 Gaussian 16:  ES64L-G16RevB.01 20-Dec-2017
                21-Nov-2022 
 ******************************************
 %nprocshared=32
 Will use up to   32 processors via shared memory.
 %mem=120GB
 %chk=_conf004.chk
 ----------------------------------------
 #P wB97XD/6-311++G(d,p) scf=maxcycle=512
 ----------------------------------------
 1/38=1,172=1/1;
 2/12=2,17=6,18=5,40=1/2;
 3/5=4,6=6,7=1111,11=2,25=1,30=1,74=-58/1,2,3;
 4//1;
 5/5=2,7=512,38=5/2;
 6/7=2,8=2,9=2,10=2,28=1/1;
 99/5=1,9=1/99;
 Leave Link    1 at Mon Nov 21 14:51:51 2022, MaxMem= 16106127360 cpu:               1.8 elap:               0.1
 (Enter /opt/ap/G16/B01/g16/l101.exe)
 ----------------------------
 _conf004.gjf nmol_natom 1_19
 ----------------------------
 Symbolic Z-matrix:
 Charge =  0 Multiplicity = 1
 C
 C                    1     1.4088 
 C                    1     1.4229   2     117.24957 
 C                    2     1.41888  1     119.07595  3     0.1651   0
 C                    2     1.42228  1     117.46262  3    -179.44444  0
 C                    1     1.4244   2     119.00294  4     179.7374  0
 C                    3     1.3551   1     122.33979  2    -0.36121  0
 O                    3     1.37616  1     115.04371  2    -179.59313  0
 C                    4     1.34578  2     121.3021  1     0.17278  0
 H                    4     0.93023  2     119.33469  1    -179.75965  0
 C                    5     1.34487  2     122.06074  1    -0.32265  0
 H                    5     0.92958  2     118.96449  1     179.64672  0
 C                    6     1.35981  1     121.11124  2     0.11625  0
 H                    6     0.93     1     119.43671  2    -179.8727  0
 H                    7     0.93053  3     120.28038  1    -179.76477  0
 H                    8     0.81992  3     109.48786  1    -160.     0
 H                    9     0.93027  4     119.71918  2     179.60144  0
 H                    11    0.92988  5     119.70373  2    -179.69197  0
 H                    13    0.93033  6     120.14525  1     179.85241  0
 
 ITRead=  0  0  0  0  0  0  0  0  0  0  0  0  0  0  0  0  0  0  0
 MicOpt= -1 -1 -1 -1 -1 -1 -1 -1 -1 -1 -1 -1 -1 -1 -1 -1 -1 -1 -1
 NAtoms=     19 NQM=       19 NQMF=       0 NMMI=      0 NMMIF=      0
                NMic=       0 NMicF=      0.
                    Isotopes and Nuclear Properties:
 (Nuclear quadrupole moments (NQMom) in fm**2, nuclear magnetic moments (NMagM)
  in nuclear magnetons)

  Atom         1           2           3           4           5           6           7           8           9          10
 IAtWgt=          12          12          12          12          12          12          12          16          12           1
 AtmWgt=  12.0000000  12.0000000  12.0000000  12.0000000  12.0000000  12.0000000  12.0000000  15.9949146  12.0000000   1.0078250
 NucSpn=           0           0           0           0           0           0           0           0           0           1
 AtZEff=  -0.0000000  -0.0000000  -0.0000000  -0.0000000  -0.0000000  -0.0000000  -0.0000000  -0.0000000  -0.0000000  -0.0000000
 NQMom=    0.0000000   0.0000000   0.0000000   0.0000000   0.0000000   0.0000000   0.0000000   0.0000000   0.0000000   0.0000000
 NMagM=    0.0000000   0.0000000   0.0000000   0.0000000   0.0000000   0.0000000   0.0000000   0.0000000   0.0000000   2.7928460
 AtZNuc=   6.0000000   6.0000000   6.0000000   6.0000000   6.0000000   6.0000000   6.0000000   8.0000000   6.0000000   1.0000000

  Atom        11          12          13          14          15          16          17          18          19
 IAtWgt=          12           1          12           1           1           1           1           1           1
 AtmWgt=  12.0000000   1.0078250  12.0000000   1.0078250   1.0078250   1.0078250   1.0078250   1.0078250   1.0078250
 NucSpn=           0           1           0           1           1           1           1           1           1
 AtZEff=  -0.0000000  -0.0000000  -0.0000000  -0.0000000  -0.0000000  -0.0000000  -0.0000000  -0.0000000  -0.0000000
 NQMom=    0.0000000   0.0000000   0.0000000   0.0000000   0.0000000   0.0000000   0.0000000   0.0000000   0.0000000
 NMagM=    0.0000000   2.7928460   0.0000000   2.7928460   2.7928460   2.7928460   2.7928460   2.7928460   2.7928460
 AtZNuc=   6.0000000   1.0000000   6.0000000   1.0000000   1.0000000   1.0000000   1.0000000   1.0000000   1.0000000
 Leave Link  101 at Mon Nov 21 14:51:51 2022, MaxMem= 16106127360 cpu:               5.2 elap:               0.2
 (Enter /opt/ap/G16/B01/g16/l202.exe)
                          Input orientation:                          
 ---------------------------------------------------------------------
 Center     Atomic      Atomic             Coordinates (Angstroms)
 Number     Number       Type             X           Y           Z
 ---------------------------------------------------------------------
      1          6           0        0.000000    0.000000    0.000000
      2          6           0        0.000000    0.000000    1.408795
      3          6           0        1.264986    0.000000   -0.651498
      4          6           0        1.240062    0.003573    2.098326
      5          6           0       -1.261945   -0.012237    2.064707
      6          6           0       -1.245741   -0.009299   -0.690628
      7          6           0        2.433644    0.007218    0.034427
      8          8           0        1.212032    0.008854   -2.026607
      9          6           0        2.409936    0.010412    1.433147
     10          1           0        1.244276    0.000184    3.028545
     11          6           0       -2.421000   -0.017057    1.382624
     12          1           0       -1.286266   -0.017488    2.993953
     13          6           0       -2.424704   -0.015738   -0.013076
     14          1           0       -1.252769   -0.011151   -1.620598
     15          1           0        3.245045    0.010306   -0.421097
     16          1           0        1.926439   -0.255927   -2.329563
     17          1           0        3.210137    0.018260    1.907515
     18          1           0       -3.227740   -0.020753    1.845035
     19          1           0       -3.230632   -0.019714   -0.477804
 ---------------------------------------------------------------------
                    Distance matrix (angstroms):
                    1          2          3          4          5
     1  C    0.000000
     2  C    1.408795   0.000000
     3  C    1.422898   2.417643   0.000000
     4  C    2.437363   1.418880   2.749940   0.000000
     5  C    2.419849   1.422278   3.709892   2.502283   0.000000
     6  C    1.424403   2.441216   2.511049   3.735994   2.755385
     7  C    2.433898   2.794917   1.355104   2.384184   4.216609
     8  O    2.361406   3.642951   1.376157   4.125032   4.781198
     9  C    2.803892   2.410081   2.378396   1.345777   3.725867
    10  H    3.274188   2.042501   3.680101   0.930234   2.685197
    11  C    2.788042   2.421201   4.210040   3.730420   1.344868
    12  H    3.258610   2.041448   4.449551   2.680471   0.929579
    13  C    2.424790   2.810899   3.744548   4.229527   2.381009
    14  H    2.048388   3.278228   2.697845   4.477144   3.685317
    15  H    3.272269   3.725443   1.993445   3.219859   5.147104
    16  H    3.033732   4.213311   1.821790   4.488280   5.434591
    17  H    3.734157   3.248697   3.214420   1.979348   4.474947
    18  H    3.717915   3.257153   5.139815   4.475043   1.978050
    19  H    3.265834   3.741207   4.499015   5.159854   3.215610
                    6          7          8          9         10
     6  C    0.000000
     7  C    3.750180   0.000000
     8  O    2.797466   2.395871   0.000000
     9  C    4.227858   1.398925   3.661267   0.000000
    10  H    4.475771   3.221706   5.055262   1.975895   0.000000
    11  C    2.383205   5.038431   4.982213   4.831278   4.017910
    12  H    3.684813   4.753644   5.607870   4.012331   2.530840
    13  C    1.359806   4.858634   4.157013   5.046383   4.765829
    14  H    0.929998   4.040926   2.498097   4.768777   5.277300
    15  H    4.498910   0.930528   2.590522   2.033624   3.987882
    16  H    3.579058   2.432066   0.819920   3.802984   5.407426
    17  H    5.158096   2.027689   4.412463   0.930273   2.263105
    18  H    3.218391   5.943934   5.890846   5.652788   4.626021
    19  H    1.996295   5.687453   4.704984   5.955556   5.685040
                   11         12         13         14         15
    11  C    0.000000
    12  H    1.970788   0.000000
    13  C    1.395705   3.215317   0.000000
    14  H    3.222443   4.614677   1.989366   0.000000
    15  H    5.946277   5.674162   5.684470   4.655061   0.000000
    16  H    5.721679   6.222391   4.935205   3.266483   2.334918
    17  H    5.655657   4.625934   5.953256   5.689110   2.328887
    18  H    0.929876   2.255958   2.024221   3.988887   6.858080
    19  H    2.028966   3.979153   0.930327   2.284293   6.475995
                   16         17         18         19
    16  H    0.000000
    17  H    4.435751   0.000000
    18  H    6.636877   6.438299   0.000000
    19  H    5.484541   6.868384   2.322841   0.000000
 Stoichiometry    C10H8O
 Framework group  C1[X(C10H8O)]
 Deg. of freedom    51
 Full point group                 C1      NOp   1
 Largest Abelian subgroup         C1      NOp   1
 Largest concise Abelian subgroup C1      NOp   1
                         Standard orientation:                         
 ---------------------------------------------------------------------
 Center     Atomic      Atomic             Coordinates (Angstroms)
 Number     Number       Type             X           Y           Z
 ---------------------------------------------------------------------
      1          6           0        0.032306    0.429985   -0.007702
      2          6           0        0.373403   -0.936883   -0.002213
      3          6           0       -1.352777    0.755834   -0.005336
      4          6           0       -0.662818   -1.906135    0.001709
      5          6           0        1.756639   -1.267693    0.007686
      6          6           0        1.073788    1.401703   -0.005925
      7          6           0       -2.320603   -0.192649   -0.005349
      8          8           0       -1.634366    2.102796   -0.019753
      9          6           0       -1.958952   -1.544017   -0.003185
     10          1           0       -0.441673   -2.809673    0.008740
     11          6           0        2.716071   -0.325273    0.005354
     12          1           0        2.005240   -2.163370    0.016463
     13          6           0        2.381734    1.029779   -0.001418
     14          1           0        0.855448    2.305706   -0.007724
     15          1           0       -3.218158    0.052858   -0.007066
     16          1           0       -2.400119    2.225023    0.246614
     17          1           0       -2.620509   -2.198037   -0.006081
     18          1           0        3.610774   -0.578589    0.007723
     19          1           0        3.051172    1.675814   -0.002378
 ---------------------------------------------------------------------
 Rotational constants (GHZ):           2.0139881           1.1471855           0.7310200
 Leave Link  202 at Mon Nov 21 14:51:51 2022, MaxMem= 16106127360 cpu:               0.1 elap:               0.0
 (Enter /opt/ap/G16/B01/g16/l301.exe)
 Standard basis: 6-311++G(d,p) (5D, 7F)
 Ernie: Thresh=  0.10000D-02 Tol=  0.10000D-05 Strict=F.
 There are   309 symmetry adapted cartesian basis functions of A   symmetry.
 There are   298 symmetry adapted basis functions of A   symmetry.
   298 basis functions,   468 primitive gaussians,   309 cartesian basis functions
    38 alpha electrons       38 beta electrons
       nuclear repulsion energy       562.3727536006 Hartrees.
 IExCor= 4639 DFT=T Ex+Corr=wB97XD ExCW=0 ScaHFX=  1.000000
 ScaDFX=  1.000000  1.000000  1.000000  1.000000 ScalE2=  1.000000  1.000000
 IRadAn=      5 IRanWt=     -1 IRanGd=            0 ICorTp=0 IEmpDi=121
 HFx  wShort=  0.000000 wLong=  0.200000 cFull=  0.222036 cShort=  0.000000 cLong=  0.777964
 DFx  wShort=  0.000000 wLong=  0.200000 cFull=  0.000000 cShort=  0.000000 cLong=  1.000000
 NAtoms=   19 NActive=   19 NUniq=   19 SFac= 1.00D+00 NAtFMM=   60 NAOKFM=F Big=F
 Integral buffers will be    131072 words long.
 Raffenetti 2 integral format.
 Two-electron integral symmetry is turned on.
 R6Disp:  Grimme-D2 Dispersion energy=       -0.0102076801 Hartrees.
 Nuclear repulsion after empirical dispersion term =      562.3625459205 Hartrees.
 Leave Link  301 at Mon Nov 21 14:51:51 2022, MaxMem= 16106127360 cpu:               1.2 elap:               0.0
 (Enter /opt/ap/G16/B01/g16/l302.exe)
 NPDir=0 NMtPBC=     1 NCelOv=     1 NCel=       1 NClECP=     1 NCelD=      1
         NCelK=      1 NCelE2=     1 NClLst=     1 CellRange=     0.0.
 One-electron integrals computed using PRISM.
 One-electron integral symmetry used in STVInt
 NBasis=   298 RedAO= T EigKep=  1.16D-06  NBF=   298
 NBsUse=   296 1.00D-06 EigRej=  6.02D-07 NBFU=   296
 Precomputing XC quadrature grid using
 IXCGrd= 4 IRadAn=           5 IRanWt=          -1 IRanGd=           0 AccXCQ= 0.00D+00.
 Generated NRdTot=       0 NPtTot=           0 NUsed=           0 NTot=          32
 NSgBfM=   309   309   309   309   309 MxSgAt=    19 MxSgA2=    19.
 Leave Link  302 at Mon Nov 21 14:51:51 2022, MaxMem= 16106127360 cpu:               6.6 elap:               0.2
 (Enter /opt/ap/G16/B01/g16/l303.exe)
 DipDrv:  MaxL=1.
 Leave Link  303 at Mon Nov 21 14:51:51 2022, MaxMem= 16106127360 cpu:               1.6 elap:               0.1
 (Enter /opt/ap/G16/B01/g16/l401.exe)
 ExpMin= 3.60D-02 ExpMax= 8.59D+03 ExpMxC= 1.30D+03 IAcc=3 IRadAn=         5 AccDes= 0.00D+00
 Harris functional with IExCor= 4639 and IRadAn=       5 diagonalized for initial guess.
 HarFok:  IExCor= 4639 AccDes= 0.00D+00 IRadAn=         5 IDoV= 1 UseB2=F ITyADJ=14
 ICtDFT=  3500011 ScaDFX=  1.000000  1.000000  1.000000  1.000000
 FoFCou: FMM=F IPFlag=           0 FMFlag=      100000 FMFlg1=           0
         NFxFlg=           0 DoJE=T BraDBF=F KetDBF=T FulRan=T
         wScrn=  0.000000 ICntrl=       500 IOpCl=  0 I1Cent=   200000004 NGrid=           0
         NMat0=    1 NMatS0=      1 NMatT0=    0 NMatD0=    1 NMtDS0=    0 NMtDT0=    0
 Petite list used in FoFCou.
 Harris En= -440.619852763962    
 JPrj=0 DoOrth=F DoCkMO=F.
 Leave Link  401 at Mon Nov 21 14:51:52 2022, MaxMem= 16106127360 cpu:              16.6 elap:               0.5
 (Enter /opt/ap/G16/B01/g16/l502.exe)
 Integral symmetry usage will be decided dynamically.
 Closed shell SCF:
 Using DIIS extrapolation, IDIIS=  1040.
 NGot= 16106127360 LenX= 16105923535 LenY= 16105827613
 Requested convergence on RMS density matrix=1.00D-08 within 512 cycles.
 Requested convergence on MAX density matrix=1.00D-06.
 Requested convergence on             energy=1.00D-06.
 No special actions if energy rises.
 Fock matrices will be formed incrementally for  20 cycles.

 Cycle   1  Pass 1  IDiag  1:
 FoFJK:  IHMeth= 1 ICntrl=       0 DoSepK=T KAlg= 0 I1Cent=           0 FoldK=F
 IRaf=         1 NMat=       1 IRICut=       1 DoRegI=T DoRafI=F ISym2E= 0 IDoP0=0 IntGTp=1.
 FoFCou: FMM=F IPFlag=           0 FMFlag=      100000 FMFlg1=           0
         NFxFlg=           0 DoJE=T BraDBF=F KetDBF=F FulRan=T
         wScrn=  0.000000 ICntrl=       500 IOpCl=  0 I1Cent=           0 NGrid=           0
         NMat0=    1 NMatS0=      1 NMatT0=    0 NMatD0=    1 NMtDS0=    0 NMtDT0=    0
 Symmetry not used in FoFCou.
 E= -460.749497407119    
 DIIS: error= 4.26D-02 at cycle   1 NSaved=   1.
 NSaved= 1 IEnMin= 1 EnMin= -460.749497407119     IErMin= 1 ErrMin= 4.26D-02
 ErrMax= 4.26D-02  0.00D+00 EMaxC= 1.00D-01 BMatC= 9.61D-01 BMatP= 9.61D-01
 IDIUse=3 WtCom= 5.74D-01 WtEn= 4.26D-01
 Coeff-Com:  0.100D+01
 Coeff-En:   0.100D+01
 Coeff:      0.100D+01
 Gap=     0.346 Goal=   None    Shift=    0.000
 GapD=    0.346 DampG=1.000 DampE=0.500 DampFc=0.5000 IDamp=-1.
 Damping current iteration by 5.00D-01
 RMSDP=3.96D-02 MaxDP=3.66D+00              OVMax= 1.42D-01

 Cycle   2  Pass 1  IDiag  1:
 RMSU=  8.46D-03    CP:  8.38D-01
 E= -460.819161423730     Delta-E=       -0.069664016611 Rises=F Damp=T
 DIIS: error= 2.08D-02 at cycle   2 NSaved=   2.
 NSaved= 2 IEnMin= 2 EnMin= -460.819161423730     IErMin= 2 ErrMin= 2.08D-02
 ErrMax= 2.08D-02  0.00D+00 EMaxC= 1.00D-01 BMatC= 2.08D-01 BMatP= 9.61D-01
 IDIUse=3 WtCom= 7.92D-01 WtEn= 2.08D-01
 Coeff-Com: -0.699D+00 0.170D+01
 Coeff-En:   0.000D+00 0.100D+01
 Coeff:     -0.554D+00 0.155D+01
 Gap=     0.346 Goal=   None    Shift=    0.000
 RMSDP=2.18D-02 MaxDP=2.16D+00 DE=-6.97D-02 OVMax= 1.51D-01

 Cycle   3  Pass 1  IDiag  1:
 RMSU=  1.36D-02    CP:  6.98D-01  1.81D+00
 E= -460.859010587737     Delta-E=       -0.039849164007 Rises=F Damp=F
 DIIS: error= 1.04D-02 at cycle   3 NSaved=   3.
 NSaved= 3 IEnMin= 3 EnMin= -460.859010587737     IErMin= 3 ErrMin= 1.04D-02
 ErrMax= 1.04D-02  0.00D+00 EMaxC= 1.00D-01 BMatC= 3.75D-02 BMatP= 2.08D-01
 IDIUse=3 WtCom= 8.96D-01 WtEn= 1.04D-01
 Coeff-Com: -0.382D+00 0.811D+00 0.571D+00
 Coeff-En:   0.000D+00 0.000D+00 0.100D+01
 Coeff:     -0.343D+00 0.727D+00 0.616D+00
 Gap=     0.318 Goal=   None    Shift=    0.000
 RMSDP=1.26D-02 MaxDP=8.49D-01 DE=-3.98D-02 OVMax= 6.95D-02

 Cycle   4  Pass 1  IDiag  1:
 RMSU=  3.12D-03    CP:  6.36D-01  1.57D+00  2.75D-01
 E= -460.891301527728     Delta-E=       -0.032290939991 Rises=F Damp=F
 DIIS: error= 1.89D-03 at cycle   4 NSaved=   4.
 NSaved= 4 IEnMin= 4 EnMin= -460.891301527728     IErMin= 4 ErrMin= 1.89D-03
 ErrMax= 1.89D-03  0.00D+00 EMaxC= 1.00D-01 BMatC= 1.27D-03 BMatP= 3.75D-02
 IDIUse=3 WtCom= 9.81D-01 WtEn= 1.89D-02
 Coeff-Com: -0.139D+00 0.295D+00 0.290D+00 0.554D+00
 Coeff-En:   0.000D+00 0.000D+00 0.000D+00 0.100D+01
 Coeff:     -0.136D+00 0.289D+00 0.284D+00 0.562D+00
 Gap=     0.307 Goal=   None    Shift=    0.000
 RMSDP=1.86D-03 MaxDP=1.13D-01 DE=-3.23D-02 OVMax= 9.54D-03

 Cycle   5  Pass 1  IDiag  1:
 RMSU=  4.46D-04    CP:  6.43D-01  1.61D+00  3.82D-01  8.07D-01
 E= -460.892424948010     Delta-E=       -0.001123420282 Rises=F Damp=F
 DIIS: error= 2.87D-04 at cycle   5 NSaved=   5.
 NSaved= 5 IEnMin= 5 EnMin= -460.892424948010     IErMin= 5 ErrMin= 2.87D-04
 ErrMax= 2.87D-04  0.00D+00 EMaxC= 1.00D-01 BMatC= 1.76D-05 BMatP= 1.27D-03
 IDIUse=3 WtCom= 9.97D-01 WtEn= 2.87D-03
 Coeff-Com:  0.937D-02-0.198D-01 0.508D-02 0.116D+00 0.889D+00
 Coeff-En:   0.000D+00 0.000D+00 0.000D+00 0.000D+00 0.100D+01
 Coeff:      0.935D-02-0.198D-01 0.507D-02 0.116D+00 0.889D+00
 Gap=     0.308 Goal=   None    Shift=    0.000
 RMSDP=3.51D-04 MaxDP=2.11D-02 DE=-1.12D-03 OVMax= 2.99D-03

 Cycle   6  Pass 1  IDiag  1:
 RMSU=  1.84D-04    CP:  6.41D-01  1.60D+00  3.69D-01  8.47D-01  1.08D+00
 E= -460.892453423813     Delta-E=       -0.000028475803 Rises=F Damp=F
 DIIS: error= 2.12D-04 at cycle   6 NSaved=   6.
 NSaved= 6 IEnMin= 6 EnMin= -460.892453423813     IErMin= 6 ErrMin= 2.12D-04
 ErrMax= 2.12D-04  0.00D+00 EMaxC= 1.00D-01 BMatC= 3.65D-06 BMatP= 1.76D-05
 IDIUse=3 WtCom= 9.98D-01 WtEn= 2.12D-03
 Coeff-Com:  0.169D-01-0.361D-01-0.250D-01-0.157D-01 0.320D+00 0.740D+00
 Coeff-En:   0.000D+00 0.000D+00 0.000D+00 0.000D+00 0.000D+00 0.100D+01
 Coeff:      0.169D-01-0.361D-01-0.250D-01-0.157D-01 0.319D+00 0.741D+00
 Gap=     0.308 Goal=   None    Shift=    0.000
 RMSDP=1.12D-04 MaxDP=6.96D-03 DE=-2.85D-05 OVMax= 1.21D-03

 Cycle   7  Pass 1  IDiag  1:
 RMSU=  4.82D-05    CP:  6.41D-01  1.60D+00  3.66D-01  8.51D-01  1.17D+00
                    CP:  1.08D+00
 E= -460.892459428340     Delta-E=       -0.000006004527 Rises=F Damp=F
 DIIS: error= 5.82D-05 at cycle   7 NSaved=   7.
 NSaved= 7 IEnMin= 7 EnMin= -460.892459428340     IErMin= 7 ErrMin= 5.82D-05
 ErrMax= 5.82D-05  0.00D+00 EMaxC= 1.00D-01 BMatC= 3.02D-07 BMatP= 3.65D-06
 IDIUse=1 WtCom= 1.00D+00 WtEn= 0.00D+00
 Coeff-Com:  0.133D-02-0.278D-02-0.272D-02-0.130D-01-0.629D-01 0.105D+00
 Coeff-Com:  0.975D+00
 Coeff:      0.133D-02-0.278D-02-0.272D-02-0.130D-01-0.629D-01 0.105D+00
 Coeff:      0.975D+00
 Gap=     0.308 Goal=   None    Shift=    0.000
 RMSDP=3.67D-05 MaxDP=2.31D-03 DE=-6.00D-06 OVMax= 7.22D-04

 Cycle   8  Pass 1  IDiag  1:
 RMSU=  2.01D-05    CP:  6.41D-01  1.60D+00  3.65D-01  8.54D-01  1.18D+00
                    CP:  1.19D+00  1.14D+00
 E= -460.892460358092     Delta-E=       -0.000000929751 Rises=F Damp=F
 DIIS: error= 2.62D-05 at cycle   8 NSaved=   8.
 NSaved= 8 IEnMin= 8 EnMin= -460.892460358092     IErMin= 8 ErrMin= 2.62D-05
 ErrMax= 2.62D-05  0.00D+00 EMaxC= 1.00D-01 BMatC= 9.05D-08 BMatP= 3.02D-07
 IDIUse=1 WtCom= 1.00D+00 WtEn= 0.00D+00
 Coeff-Com: -0.196D-02 0.422D-02 0.297D-02-0.227D-02-0.752D-01-0.683D-01
 Coeff-Com:  0.412D+00 0.729D+00
 Coeff:     -0.196D-02 0.422D-02 0.297D-02-0.227D-02-0.752D-01-0.683D-01
 Coeff:      0.412D+00 0.729D+00
 Gap=     0.308 Goal=   None    Shift=    0.000
 RMSDP=1.12D-05 MaxDP=1.19D-03 DE=-9.30D-07 OVMax= 2.11D-04

 Cycle   9  Pass 1  IDiag  1:
 RMSU=  7.15D-06    CP:  6.41D-01  1.60D+00  3.65D-01  8.53D-01  1.18D+00
                    CP:  1.22D+00  1.20D+00  9.78D-01
 E= -460.892460532737     Delta-E=       -0.000000174645 Rises=F Damp=F
 DIIS: error= 1.07D-05 at cycle   9 NSaved=   9.
 NSaved= 9 IEnMin= 9 EnMin= -460.892460532737     IErMin= 9 ErrMin= 1.07D-05
 ErrMax= 1.07D-05  0.00D+00 EMaxC= 1.00D-01 BMatC= 7.57D-09 BMatP= 9.05D-08
 IDIUse=1 WtCom= 1.00D+00 WtEn= 0.00D+00
 Coeff-Com: -0.748D-03 0.160D-02 0.136D-02 0.148D-02-0.134D-01-0.374D-01
 Coeff-Com: -0.253D-01 0.183D+00 0.889D+00
 Coeff:     -0.748D-03 0.160D-02 0.136D-02 0.148D-02-0.134D-01-0.374D-01
 Coeff:     -0.253D-01 0.183D+00 0.889D+00
 Gap=     0.308 Goal=   None    Shift=    0.000
 RMSDP=6.93D-06 MaxDP=4.36D-04 DE=-1.75D-07 OVMax= 1.24D-04

 Cycle  10  Pass 1  IDiag  1:
 RMSU=  3.31D-06    CP:  6.41D-01  1.60D+00  3.65D-01  8.53D-01  1.18D+00
                    CP:  1.23D+00  1.23D+00  1.03D+00  1.14D+00
 E= -460.892460559081     Delta-E=       -0.000000026345 Rises=F Damp=F
 DIIS: error= 5.82D-06 at cycle  10 NSaved=  10.
 NSaved=10 IEnMin=10 EnMin= -460.892460559081     IErMin=10 ErrMin= 5.82D-06
 ErrMax= 5.82D-06  0.00D+00 EMaxC= 1.00D-01 BMatC= 1.25D-09 BMatP= 7.57D-09
 IDIUse=1 WtCom= 1.00D+00 WtEn= 0.00D+00
 Coeff-Com:  0.416D-04-0.946D-04 0.186D-04 0.745D-03 0.574D-02-0.121D-02
 Coeff-Com: -0.530D-01-0.709D-01 0.225D+00 0.894D+00
 Coeff:      0.416D-04-0.946D-04 0.186D-04 0.745D-03 0.574D-02-0.121D-02
 Coeff:     -0.530D-01-0.709D-01 0.225D+00 0.894D+00
 Gap=     0.308 Goal=   None    Shift=    0.000
 RMSDP=1.70D-06 MaxDP=1.49D-04 DE=-2.63D-08 OVMax= 4.54D-05

 Cycle  11  Pass 1  IDiag  1:
 RMSU=  8.41D-07    CP:  6.41D-01  1.60D+00  3.65D-01  8.53D-01  1.18D+00
                    CP:  1.23D+00  1.22D+00  1.06D+00  1.23D+00  1.16D+00
 E= -460.892460563101     Delta-E=       -0.000000004020 Rises=F Damp=F
 DIIS: error= 1.83D-06 at cycle  11 NSaved=  11.
 NSaved=11 IEnMin=11 EnMin= -460.892460563101     IErMin=11 ErrMin= 1.83D-06
 ErrMax= 1.83D-06  0.00D+00 EMaxC= 1.00D-01 BMatC= 2.53D-10 BMatP= 1.25D-09
 IDIUse=1 WtCom= 1.00D+00 WtEn= 0.00D+00
 Coeff-Com:  0.139D-03-0.298D-03-0.217D-03 0.452D-04 0.422D-02 0.527D-02
 Coeff-Com: -0.124D-01-0.607D-01-0.621D-01 0.334D+00 0.792D+00
 Coeff:      0.139D-03-0.298D-03-0.217D-03 0.452D-04 0.422D-02 0.527D-02
 Coeff:     -0.124D-01-0.607D-01-0.621D-01 0.334D+00 0.792D+00
 Gap=     0.308 Goal=   None    Shift=    0.000
 RMSDP=5.59D-07 MaxDP=2.64D-05 DE=-4.02D-09 OVMax= 1.69D-05

 Cycle  12  Pass 1  IDiag  1:
 RMSU=  3.24D-07    CP:  6.41D-01  1.60D+00  3.65D-01  8.53D-01  1.18D+00
                    CP:  1.23D+00  1.22D+00  1.07D+00  1.26D+00  1.23D+00
                    CP:  1.12D+00
 E= -460.892460563756     Delta-E=       -0.000000000655 Rises=F Damp=F
 DIIS: error= 7.71D-07 at cycle  12 NSaved=  12.
 NSaved=12 IEnMin=12 EnMin= -460.892460563756     IErMin=12 ErrMin= 7.71D-07
 ErrMax= 7.71D-07  0.00D+00 EMaxC= 1.00D-01 BMatC= 1.85D-11 BMatP= 2.53D-10
 IDIUse=1 WtCom= 1.00D+00 WtEn= 0.00D+00
 Coeff-Com:  0.543D-05-0.108D-04-0.234D-04-0.116D-03-0.525D-03 0.412D-03
 Coeff-Com:  0.864D-02 0.488D-02-0.430D-01-0.101D+00 0.601D-02 0.112D+01
 Coeff:      0.543D-05-0.108D-04-0.234D-04-0.116D-03-0.525D-03 0.412D-03
 Coeff:      0.864D-02 0.488D-02-0.430D-01-0.101D+00 0.601D-02 0.112D+01
 Gap=     0.308 Goal=   None    Shift=    0.000
 RMSDP=3.08D-07 MaxDP=1.71D-05 DE=-6.55D-10 OVMax= 8.47D-06

 Cycle  13  Pass 1  IDiag  1:
 RMSU=  1.32D-07    CP:  6.41D-01  1.60D+00  3.65D-01  8.53D-01  1.18D+00
                    CP:  1.23D+00  1.22D+00  1.07D+00  1.25D+00  1.26D+00
                    CP:  1.25D+00  1.31D+00
 E= -460.892460563871     Delta-E=       -0.000000000115 Rises=F Damp=F
 DIIS: error= 2.63D-07 at cycle  13 NSaved=  13.
 NSaved=13 IEnMin=13 EnMin= -460.892460563871     IErMin=13 ErrMin= 2.63D-07
 ErrMax= 2.63D-07  0.00D+00 EMaxC= 1.00D-01 BMatC= 4.38D-12 BMatP= 1.85D-11
 IDIUse=1 WtCom= 1.00D+00 WtEn= 0.00D+00
 Coeff-Com: -0.101D-04 0.221D-04 0.107D-04-0.476D-04-0.539D-03-0.344D-03
 Coeff-Com:  0.434D-02 0.735D-02-0.917D-02-0.610D-01-0.766D-01 0.410D+00
 Coeff-Com:  0.726D+00
 Coeff:     -0.101D-04 0.221D-04 0.107D-04-0.476D-04-0.539D-03-0.344D-03
 Coeff:      0.434D-02 0.735D-02-0.917D-02-0.610D-01-0.766D-01 0.410D+00
 Coeff:      0.726D+00
 Gap=     0.308 Goal=   None    Shift=    0.000
 RMSDP=8.04D-08 MaxDP=4.83D-06 DE=-1.15D-10 OVMax= 2.03D-06

 Cycle  14  Pass 1  IDiag  1:
 RMSU=  4.02D-08    CP:  6.41D-01  1.60D+00  3.65D-01  8.53D-01  1.18D+00
                    CP:  1.23D+00  1.22D+00  1.06D+00  1.25D+00  1.26D+00
                    CP:  1.26D+00  1.38D+00  1.19D+00
 E= -460.892460563873     Delta-E=       -0.000000000003 Rises=F Damp=F
 DIIS: error= 1.04D-07 at cycle  14 NSaved=  14.
 NSaved=14 IEnMin=14 EnMin= -460.892460563873     IErMin=14 ErrMin= 1.04D-07
 ErrMax= 1.04D-07  0.00D+00 EMaxC= 1.00D-01 BMatC= 7.56D-13 BMatP= 4.38D-12
 IDIUse=1 WtCom= 1.00D+00 WtEn= 0.00D+00
 Coeff-Com: -0.283D-05 0.600D-05 0.500D-05 0.122D-05-0.361D-04-0.160D-03
 Coeff-Com: -0.571D-03 0.990D-03 0.504D-02 0.421D-02-0.252D-01-0.114D+00
 Coeff-Com:  0.214D+00 0.916D+00
 Coeff:     -0.283D-05 0.600D-05 0.500D-05 0.122D-05-0.361D-04-0.160D-03
 Coeff:     -0.571D-03 0.990D-03 0.504D-02 0.421D-02-0.252D-01-0.114D+00
 Coeff:      0.214D+00 0.916D+00
 Gap=     0.308 Goal=   None    Shift=    0.000
 RMSDP=4.91D-08 MaxDP=2.02D-06 DE=-2.73D-12 OVMax= 1.27D-06

 Cycle  15  Pass 1  IDiag  1:
 RMSU=  1.86D-08    CP:  6.41D-01  1.60D+00  3.65D-01  8.53D-01  1.18D+00
                    CP:  1.23D+00  1.22D+00  1.06D+00  1.25D+00  1.26D+00
                    CP:  1.26D+00  1.40D+00  1.31D+00  1.11D+00
 E= -460.892460563873     Delta-E=        0.000000000000 Rises=F Damp=F
 DIIS: error= 3.36D-08 at cycle  15 NSaved=  15.
 NSaved=15 IEnMin=14 EnMin= -460.892460563873     IErMin=15 ErrMin= 3.36D-08
 ErrMax= 3.36D-08  0.00D+00 EMaxC= 1.00D-01 BMatC= 1.23D-13 BMatP= 7.56D-13
 IDIUse=1 WtCom= 1.00D+00 WtEn= 0.00D+00
 Coeff-Com: -0.119D-06 0.166D-06 0.953D-06 0.638D-05 0.540D-04-0.162D-04
 Coeff-Com: -0.741D-03-0.544D-03 0.239D-02 0.884D-02 0.251D-02-0.922D-01
 Coeff-Com: -0.419D-01 0.292D+00 0.830D+00
 Coeff:     -0.119D-06 0.166D-06 0.953D-06 0.638D-05 0.540D-04-0.162D-04
 Coeff:     -0.741D-03-0.544D-03 0.239D-02 0.884D-02 0.251D-02-0.922D-01
 Coeff:     -0.419D-01 0.292D+00 0.830D+00
 Gap=     0.308 Goal=   None    Shift=    0.000
 RMSDP=2.59D-08 MaxDP=1.46D-06 DE= 1.14D-13 OVMax= 5.14D-07

 Cycle  16  Pass 1  IDiag  1:
 RMSU=  6.79D-09    CP:  6.41D-01  1.60D+00  3.65D-01  8.53D-01  1.18D+00
                    CP:  1.23D+00  1.22D+00  1.06D+00  1.25D+00  1.26D+00
                    CP:  1.26D+00  1.40D+00  1.35D+00  1.24D+00  1.24D+00
 E= -460.892460563879     Delta-E=       -0.000000000005 Rises=F Damp=F
 DIIS: error= 1.50D-08 at cycle  16 NSaved=  16.
 NSaved=16 IEnMin=16 EnMin= -460.892460563879     IErMin=16 ErrMin= 1.50D-08
 ErrMax= 1.50D-08  0.00D+00 EMaxC= 1.00D-01 BMatC= 2.37D-14 BMatP= 1.23D-13
 IDIUse=1 WtCom= 1.00D+00 WtEn= 0.00D+00
 Coeff-Com:  0.608D-06-0.133D-05-0.848D-06 0.183D-05 0.299D-04 0.347D-04
 Coeff-Com: -0.164D-03-0.408D-03-0.103D-03 0.284D-02 0.778D-02-0.118D-01
 Coeff-Com: -0.706D-01-0.784D-01 0.270D+00 0.880D+00
 Coeff:      0.608D-06-0.133D-05-0.848D-06 0.183D-05 0.299D-04 0.347D-04
 Coeff:     -0.164D-03-0.408D-03-0.103D-03 0.284D-02 0.778D-02-0.118D-01
 Coeff:     -0.706D-01-0.784D-01 0.270D+00 0.880D+00
 Gap=     0.308 Goal=   None    Shift=    0.000
 RMSDP=1.66D-08 MaxDP=8.72D-07 DE=-5.34D-12 OVMax= 2.32D-07

 Cycle  17  Pass 1  IDiag  1:
 RMSU=  3.07D-09    CP:  6.41D-01  1.60D+00  3.65D-01  8.53D-01  1.18D+00
                    CP:  1.23D+00  1.22D+00  1.06D+00  1.25D+00  1.27D+00
                    CP:  1.26D+00  1.40D+00  1.36D+00  1.30D+00  1.39D+00
                    CP:  1.27D+00
 E= -460.892460563872     Delta-E=        0.000000000007 Rises=F Damp=F
 DIIS: error= 6.06D-09 at cycle  17 NSaved=  17.
 NSaved=17 IEnMin=16 EnMin= -460.892460563879     IErMin=17 ErrMin= 6.06D-09
 ErrMax= 6.06D-09  0.00D+00 EMaxC= 1.00D-01 BMatC= 1.57D-15 BMatP= 2.37D-14
 IDIUse=1 WtCom= 1.00D+00 WtEn= 0.00D+00
 Large coefficients: NSaved= 17 BigCof=    0.00 CofMax=   10.00 Det=-8.46D-15
 Inversion failed.  Reducing to 16 matrices.
 Large coefficients: NSaved= 16 BigCof=    0.00 CofMax=   10.00 Det=-8.83D-15
 Inversion failed.  Reducing to 15 matrices.
 Coeff-Com: -0.101D-06-0.570D-06-0.537D-05 0.532D-05 0.732D-04 0.560D-04
 Coeff-Com: -0.316D-03-0.117D-02 0.493D-03 0.113D-01-0.129D-02-0.284D-01
 Coeff-Com: -0.945D-01 0.299D-01 0.108D+01
 Coeff:     -0.101D-06-0.570D-06-0.537D-05 0.532D-05 0.732D-04 0.560D-04
 Coeff:     -0.316D-03-0.117D-02 0.493D-03 0.113D-01-0.129D-02-0.284D-01
 Coeff:     -0.945D-01 0.299D-01 0.108D+01
 Gap=     0.308 Goal=   None    Shift=    0.000
 RMSDP=3.17D-09 MaxDP=2.21D-07 DE= 6.59D-12 OVMax= 7.20D-08

 SCF Done:  E(RwB97XD) =  -460.892460564     A.U. after   17 cycles
            NFock= 17  Conv=0.32D-08     -V/T= 1.9983
 KE= 4.616657825232D+02 PE=-2.199381694679D+03 EE= 7.144609056713D+02
 Leave Link  502 at Mon Nov 21 14:52:21 2022, MaxMem= 16106127360 cpu:             900.7 elap:              28.6
 (Enter /opt/ap/G16/B01/g16/l601.exe)
 Copying SCF densities to generalized density rwf, IOpCl= 0 IROHF=0.

 **********************************************************************

            Population analysis using the SCF Density.

 **********************************************************************

 Orbital symmetries:
       Occupied  (A) (A) (A) (A) (A) (A) (A) (A) (A) (A) (A) (A)
                 (A) (A) (A) (A) (A) (A) (A) (A) (A) (A) (A) (A)
                 (A) (A) (A) (A) (A) (A) (A) (A) (A) (A) (A) (A)
                 (A) (A)
       Virtual   (A) (A) (A) (A) (A) (A) (A) (A) (A) (A) (A) (A)
                 (A) (A) (A) (A) (A) (A) (A) (A) (A) (A) (A) (A)
                 (A) (A) (A) (A) (A) (A) (A) (A) (A) (A) (A) (A)
                 (A) (A) (A) (A) (A) (A) (A) (A) (A) (A) (A) (A)
                 (A) (A) (A) (A) (A) (A) (A) (A) (A) (A) (A) (A)
                 (A) (A) (A) (A) (A) (A) (A) (A) (A) (A) (A) (A)
                 (A) (A) (A) (A) (A) (A) (A) (A) (A) (A) (A) (A)
                 (A) (A) (A) (A) (A) (A) (A) (A) (A) (A) (A) (A)
                 (A) (A) (A) (A) (A) (A) (A) (A) (A) (A) (A) (A)
                 (A) (A) (A) (A) (A) (A) (A) (A) (A) (A) (A) (A)
                 (A) (A) (A) (A) (A) (A) (A) (A) (A) (A) (A) (A)
                 (A) (A) (A) (A) (A) (A) (A) (A) (A) (A) (A) (A)
                 (A) (A) (A) (A) (A) (A) (A) (A) (A) (A) (A) (A)
                 (A) (A) (A) (A) (A) (A) (A) (A) (A) (A) (A) (A)
                 (A) (A) (A) (A) (A) (A) (A) (A) (A) (A) (A) (A)
                 (A) (A) (A) (A) (A) (A) (A) (A) (A) (A) (A) (A)
                 (A) (A) (A) (A) (A) (A) (A) (A) (A) (A) (A) (A)
                 (A) (A) (A) (A) (A) (A) (A) (A) (A) (A) (A) (A)
                 (A) (A) (A) (A) (A) (A) (A) (A) (A) (A) (A) (A)
                 (A) (A) (A) (A) (A) (A) (A) (A) (A) (A) (A) (A)
                 (A) (A) (A) (A) (A) (A) (A) (A) (A) (A) (A) (A)
                 (A) (A) (A) (A) (A) (A)
 The electronic state is 1-A.
 Alpha  occ. eigenvalues --  -19.26767 -10.35226 -10.29566 -10.29368 -10.27084
 Alpha  occ. eigenvalues --  -10.26919 -10.26804 -10.26710 -10.26549 -10.26491
 Alpha  occ. eigenvalues --  -10.26290  -1.20086  -0.98604  -0.93989  -0.88418
 Alpha  occ. eigenvalues --   -0.86115  -0.83870  -0.75485  -0.73840  -0.72115
 Alpha  occ. eigenvalues --   -0.66379  -0.64387  -0.61861  -0.59490  -0.55698
 Alpha  occ. eigenvalues --   -0.53950  -0.52727  -0.51819  -0.51150  -0.48847
 Alpha  occ. eigenvalues --   -0.47289  -0.45803  -0.43104  -0.42766  -0.41541
 Alpha  occ. eigenvalues --   -0.35210  -0.32530  -0.28499
 Alpha virt. eigenvalues --    0.02316   0.03921   0.04595   0.04687   0.05040
 Alpha virt. eigenvalues --    0.06203   0.06577   0.08693   0.08728   0.09190
 Alpha virt. eigenvalues --    0.10658   0.11540   0.12292   0.13160   0.13850
 Alpha virt. eigenvalues --    0.14924   0.15105   0.15775   0.15942   0.16737
 Alpha virt. eigenvalues --    0.16793   0.17024   0.17965   0.18081   0.18379
 Alpha virt. eigenvalues --    0.18732   0.19345   0.19506   0.20054   0.20772
 Alpha virt. eigenvalues --    0.21400   0.21940   0.22435   0.22470   0.22878
 Alpha virt. eigenvalues --    0.24723   0.25854   0.25901   0.26216   0.27099
 Alpha virt. eigenvalues --    0.27385   0.29157   0.29842   0.30139   0.30339
 Alpha virt. eigenvalues --    0.31349   0.31671   0.32190   0.32880   0.33802
 Alpha virt. eigenvalues --    0.34321   0.34767   0.35343   0.35653   0.36074
 Alpha virt. eigenvalues --    0.36650   0.37614   0.37985   0.39320   0.39484
 Alpha virt. eigenvalues --    0.40167   0.41100   0.41897   0.42611   0.43231
 Alpha virt. eigenvalues --    0.44384   0.44914   0.46216   0.47805   0.49456
 Alpha virt. eigenvalues --    0.51152   0.57505   0.58449   0.60100   0.61248
 Alpha virt. eigenvalues --    0.62059   0.62745   0.65576   0.66043   0.66424
 Alpha virt. eigenvalues --    0.67312   0.67523   0.68419   0.68856   0.70197
 Alpha virt. eigenvalues --    0.70702   0.71321   0.71972   0.72174   0.72503
 Alpha virt. eigenvalues --    0.75095   0.75399   0.77114   0.78817   0.81111
 Alpha virt. eigenvalues --    0.82328   0.83010   0.85400   0.86990   0.87601
 Alpha virt. eigenvalues --    0.89384   0.91009   0.92083   0.92744   0.93449
 Alpha virt. eigenvalues --    0.96162   0.96893   0.97531   1.00074   1.00894
 Alpha virt. eigenvalues --    1.01453   1.02502   1.03956   1.05395   1.06368
 Alpha virt. eigenvalues --    1.06834   1.07385   1.10244   1.12215   1.13551
 Alpha virt. eigenvalues --    1.14645   1.15843   1.18707   1.19009   1.20183
 Alpha virt. eigenvalues --    1.20890   1.22562   1.23589   1.24119   1.25134
 Alpha virt. eigenvalues --    1.29091   1.32836   1.36737   1.43736   1.46059
 Alpha virt. eigenvalues --    1.49295   1.55964   1.57235   1.58099   1.59238
 Alpha virt. eigenvalues --    1.62123   1.62459   1.63155   1.63643   1.70329
 Alpha virt. eigenvalues --    1.70610   1.71094   1.71289   1.72379   1.76447
 Alpha virt. eigenvalues --    1.77326   1.78712   1.80042   1.81586   1.89242
 Alpha virt. eigenvalues --    1.90575   1.91608   1.92597   1.93285   1.94052
 Alpha virt. eigenvalues --    1.96349   1.97653   1.98256   2.00455   2.03329
 Alpha virt. eigenvalues --    2.04984   2.05312   2.07899   2.09093   2.09495
 Alpha virt. eigenvalues --    2.10200   2.12691   2.13828   2.15760   2.20304
 Alpha virt. eigenvalues --    2.24639   2.27669   2.28720   2.30319   2.35002
 Alpha virt. eigenvalues --    2.38344   2.39608   2.41261   2.49800   2.51477
 Alpha virt. eigenvalues --    2.52368   2.54018   2.55175   2.56256   2.58307
 Alpha virt. eigenvalues --    2.64808   2.67968   2.73106   2.74572   2.76031
 Alpha virt. eigenvalues --    2.80789   2.82223   2.85223   2.87872   2.88923
 Alpha virt. eigenvalues --    2.93726   2.94142   2.95330   2.99780   3.01298
 Alpha virt. eigenvalues --    3.02729   3.03482   3.04769   3.07056   3.07801
 Alpha virt. eigenvalues --    3.08915   3.12069   3.17408   3.18893   3.19939
 Alpha virt. eigenvalues --    3.22227   3.24308   3.27515   3.28674   3.35347
 Alpha virt. eigenvalues --    3.36587   3.39789   3.48344   3.50169   3.53629
 Alpha virt. eigenvalues --    3.56025   3.64641   3.74150   3.77519   3.80423
 Alpha virt. eigenvalues --    3.84319   3.89751   3.90727   4.00207   4.16836
 Alpha virt. eigenvalues --    4.30129   4.43816   4.44802   4.46357   4.52420
 Alpha virt. eigenvalues --    4.57789   4.62677   4.94879   4.97723   5.14151
 Alpha virt. eigenvalues --    5.66388   6.17407  23.80379  24.05837  24.16037
 Alpha virt. eigenvalues --   24.17704  24.22101  24.26886  24.41050  24.44922
 Alpha virt. eigenvalues --   24.51990  24.53884  50.17734
          Condensed to atoms (all electrons):
               1          2          3          4          5          6
     1  C   25.922257  -2.705097  -5.094165  -6.563787  -1.619957   0.196096
     2  C   -2.705097  21.736875  -5.045109  -0.312120  -2.957272  -4.334232
     3  C   -5.094165  -5.045109  14.737566   2.795094  -0.230206  -0.686104
     4  C   -6.563787  -0.312120   2.795094  11.820684  -0.297825  -1.278300
     5  C   -1.619957  -2.957272  -0.230206  -0.297825   9.200599   2.524051
     6  C    0.196096  -4.334232  -0.686104  -1.278300   2.524051  11.121587
     7  C   -5.504330  -0.796733   1.636173   0.231637   0.163376  -0.795693
     8  O   -0.410662  -0.204658   0.572463   0.008918  -0.028463   0.137783
     9  C    2.078970  -0.209884  -1.544682  -1.055674  -0.188329   0.697696
    10  H   -0.169068  -0.010629   0.086126   0.577901   0.017400  -0.067398
    11  C   -0.245657  -0.030775   0.052714   0.151182   0.201448  -0.976697
    12  H   -0.010072  -0.074176  -0.041117  -0.018174   0.517186   0.082416
    13  C   -0.728728   1.309827  -0.789494   0.446268  -1.114346  -1.147212
    14  H    0.334344   0.146053  -0.382902  -0.046907   0.038692   0.451671
    15  H   -0.022148   0.008087  -0.158000  -0.011434  -0.021109  -0.006929
    16  H    0.011666  -0.046366   0.173733   0.010037   0.004018   0.001936
    17  H    0.111689   0.010827  -0.011741  -0.150592   0.018046   0.013261
    18  H   -0.034388   0.061495  -0.039410   0.022022  -0.057341  -0.024529
    19  H    0.022067  -0.071135   0.079627  -0.016268  -0.030996  -0.052996
               7          8          9         10         11         12
     1  C   -5.504330  -0.410662   2.078970  -0.169068  -0.245657  -0.010072
     2  C   -0.796733  -0.204658  -0.209884  -0.010629  -0.030775  -0.074176
     3  C    1.636173   0.572463  -1.544682   0.086126   0.052714  -0.041117
     4  C    0.231637   0.008918  -1.055674   0.577901   0.151182  -0.018174
     5  C    0.163376  -0.028463  -0.188329   0.017400   0.201448   0.517186
     6  C   -0.795693   0.137783   0.697696  -0.067398  -0.976697   0.082416
     7  C   12.104015  -0.155154  -0.594913   0.076134   0.020774   0.002367
     8  O   -0.155154   8.055886   0.029076   0.000350  -0.001121   0.000074
     9  C   -0.594913   0.029076   6.881325  -0.180650  -0.363528   0.047320
    10  H    0.076134   0.000350  -0.180650   0.510132   0.048112  -0.003345
    11  C    0.020774  -0.001121  -0.363528   0.048112   6.341563  -0.124663
    12  H    0.002367   0.000074   0.047320  -0.003345  -0.124663   0.507650
    13  C   -0.502797   0.070211   0.093329   0.002447   0.705961  -0.012868
    14  H   -0.176306  -0.037632   0.035308  -0.001090   0.026669   0.001750
    15  H    0.577890  -0.018841  -0.011204   0.001473  -0.001899  -0.000317
    16  H   -0.083448   0.231038  -0.012537   0.000351  -0.001795   0.000068
    17  H   -0.151036   0.000063   0.495995  -0.024063  -0.000474   0.001166
    18  H   -0.012640  -0.000212   0.008589   0.000209   0.466122  -0.019059
    19  H    0.027823   0.002937  -0.006814  -0.000064  -0.058585   0.000199
              13         14         15         16         17         18
     1  C   -0.728728   0.334344  -0.022148   0.011666   0.111689  -0.034388
     2  C    1.309827   0.146053   0.008087  -0.046366   0.010827   0.061495
     3  C   -0.789494  -0.382902  -0.158000   0.173733  -0.011741  -0.039410
     4  C    0.446268  -0.046907  -0.011434   0.010037  -0.150592   0.022022
     5  C   -1.114346   0.038692  -0.021109   0.004018   0.018046  -0.057341
     6  C   -1.147212   0.451671  -0.006929   0.001936   0.013261  -0.024529
     7  C   -0.502797  -0.176306   0.577890  -0.083448  -0.151036  -0.012640
     8  O    0.070211  -0.037632  -0.018841   0.231038   0.000063  -0.000212
     9  C    0.093329   0.035308  -0.011204  -0.012537   0.495995   0.008589
    10  H    0.002447  -0.001090   0.001473   0.000351  -0.024063   0.000209
    11  C    0.705961   0.026669  -0.001899  -0.001795  -0.000474   0.466122
    12  H   -0.012868   0.001750  -0.000317   0.000068   0.001166  -0.019059
    13  C    7.592866  -0.064797   0.006536  -0.023424  -0.001446  -0.043628
    14  H   -0.064797   0.517579  -0.001320  -0.002663   0.001429   0.003225
    15  H    0.006536  -0.001320   0.527690  -0.003328  -0.015055  -0.000117
    16  H   -0.023424  -0.002663  -0.003328   0.461947   0.000416  -0.000124
    17  H   -0.001446   0.001429  -0.015055   0.000416   0.512162   0.000197
    18  H   -0.043628   0.003225  -0.000117  -0.000124   0.000197   0.505834
    19  H    0.453021  -0.025504   0.000278   0.000099  -0.000215  -0.015006
              19
     1  C    0.022067
     2  C   -0.071135
     3  C    0.079627
     4  C   -0.016268
     5  C   -0.030996
     6  C   -0.052996
     7  C    0.027823
     8  O    0.002937
     9  C   -0.006814
    10  H   -0.000064
    11  C   -0.058585
    12  H    0.000199
    13  C    0.453021
    14  H   -0.025504
    15  H    0.000278
    16  H    0.000099
    17  H   -0.000215
    18  H   -0.015006
    19  H    0.507172
 Mulliken charges:
               1
     1  C    0.430969
     2  C   -0.474977
     3  C   -0.110566
     4  C   -0.312663
     5  C   -0.138972
     6  C    0.143593
     7  C   -0.067139
     8  O   -0.252056
     9  C   -0.199393
    10  H    0.135672
    11  C   -0.209352
    12  H    0.143593
    13  C   -0.251727
    14  H    0.182402
    15  H    0.149749
    16  H    0.278377
    17  H    0.189371
    18  H    0.178760
    19  H    0.184358
 Sum of Mulliken charges =  -0.00000
 Mulliken charges with hydrogens summed into heavy atoms:
               1
     1  C    0.430969
     2  C   -0.474977
     3  C   -0.110566
     4  C   -0.176991
     5  C    0.004621
     6  C    0.325995
     7  C    0.082609
     8  O    0.026321
     9  C   -0.010022
    11  C   -0.030592
    13  C   -0.067368
 Electronic spatial extent (au):  <R**2>=           1509.3418
 Charge=             -0.0000 electrons
 Dipole moment (field-independent basis, Debye):
    X=             -0.9000    Y=             -0.4823    Z=              0.4566  Tot=              1.1185
 Quadrupole moment (field-independent basis, Debye-Ang):
   XX=            -49.8444   YY=            -58.4935   ZZ=            -67.7802
   XY=             -1.5102   XZ=             -1.2608   YZ=              1.1796
 Traceless Quadrupole moment (field-independent basis, Debye-Ang):
   XX=              8.8616   YY=              0.2125   ZZ=             -9.0741
   XY=             -1.5102   XZ=             -1.2608   YZ=              1.1796
 Octapole moment (field-independent basis, Debye-Ang**2):
  XXX=            -19.3974  YYY=             -1.3789  ZZZ=              0.2114  XYY=             -4.3201
  XXY=             12.6239  XXZ=              3.2929  XZZ=             -3.9469  YZZ=              4.9893
  YYZ=              2.9934  XYZ=             -3.3438
 Hexadecapole moment (field-independent basis, Debye-Ang**3):
 XXXX=          -1058.9678 YYYY=           -671.5485 ZZZZ=            -77.3800 XXXY=            -43.1629
 XXXZ=             -8.2222 YYYX=            -15.6946 YYYZ=              7.0481 ZZZX=             -0.8200
 ZZZY=              0.8087 XXYY=           -270.2229 XXZZ=           -238.4107 YYZZ=           -141.4413
 XXYZ=              8.2057 YYXZ=             -7.5956 ZZXY=             -8.9788
 N-N= 5.623625459205D+02 E-N=-2.199381694550D+03  KE= 4.616657825232D+02
 No NMR shielding tensors so no spin-rotation constants.
 Leave Link  601 at Mon Nov 21 14:52:21 2022, MaxMem= 16106127360 cpu:               4.9 elap:               0.2
 (Enter /opt/ap/G16/B01/g16/l9999.exe)
 1\1\GINC-N09\SP\RwB97XD\6-311++G(d,p)\C10H8O1\ROOT\21-Nov-2022\0\\#P w
 B97XD/6-311++G(d,p) scf=maxcycle=512\\_conf004.gjf nmol_natom 1_19\\0,
 1\C\C,1,1.40879539\C,1,1.42289824,2,117.24956717\C,2,1.41887971,1,119.
 07594714,3,0.16510261,0\C,2,1.42227783,1,117.46262303,3,-179.44443577,
 0\C,1,1.42440336,2,119.00293897,4,179.73740031,0\C,3,1.35510367,1,122.
 33979448,2,-0.36120568,0\O,3,1.37615658,1,115.04370777,2,-179.5931286,
 0\C,4,1.34577659,2,121.30210156,1,0.17277764,0\H,4,0.93023405,2,119.33
 469462,1,-179.75965297,0\C,5,1.34486794,2,122.06073707,1,-0.32265162,0
 \H,5,0.92957893,2,118.96449269,1,179.64671542,0\C,6,1.35980576,1,121.1
 112438,2,0.11625163,0\H,6,0.92999796,1,119.43671105,2,-179.87270235,0\
 H,7,0.93052813,3,120.28038366,1,-179.76477098,0\H,8,0.81991994,3,109.4
 8785721,1,-160.,0\H,9,0.93027331,4,119.71917791,2,179.60144151,0\H,11,
 0.92987565,5,119.70372857,2,-179.69197286,0\H,13,0.93032717,6,120.1452
 4692,1,179.85241379,0\\Version=ES64L-G16RevB.01\State=1-A\HF=-460.8924
 606\RMSD=3.168e-09\Dipole=0.3901784,-0.1777402,0.0990868\Quadrupole=5.
 6891842,-6.743185,1.0540008,-0.6586803,-2.5033326,1.098533\PG=C01 [X(C
 10H8O1)]\\@


 My opinions may have changed, but not the fact that I am right.
                       -- Ashleigh Brilliant
 Job cpu time:       0 days  0 hours 15 minutes 41.0 seconds.
 Elapsed time:       0 days  0 hours  0 minutes 30.0 seconds.
 File lengths (MBytes):  RWF=     51 Int=      0 D2E=      0 Chk=      6 Scr=      1
 Normal termination of Gaussian 16 at Mon Nov 21 14:52:21 2022.
