 Entering Gaussian System, Link 0=g16
 Input=_conf039.gjf
 Output=_conf039.log
 Initial command:
 /opt/ap/G16/B01/g16/l1.exe "/tmp2/scr/Gau-25686.inp" -scrdir="/tmp2/scr/"
 Entering Link 1 = /opt/ap/G16/B01/g16/l1.exe PID=     25687.
  
 Copyright (c) 1988-2017, Gaussian, Inc.  All Rights Reserved.
  
 This is part of the Gaussian(R) 16 program.  It is based on
 the Gaussian(R) 09 system (copyright 2009, Gaussian, Inc.),
 the Gaussian(R) 03 system (copyright 2003, Gaussian, Inc.),
 the Gaussian(R) 98 system (copyright 1998, Gaussian, Inc.),
 the Gaussian(R) 94 system (copyright 1995, Gaussian, Inc.),
 the Gaussian 92(TM) system (copyright 1992, Gaussian, Inc.),
 the Gaussian 90(TM) system (copyright 1990, Gaussian, Inc.),
 the Gaussian 88(TM) system (copyright 1988, Gaussian, Inc.),
 the Gaussian 86(TM) system (copyright 1986, Carnegie Mellon
 University), and the Gaussian 82(TM) system (copyright 1983,
 Carnegie Mellon University). Gaussian is a federally registered
 trademark of Gaussian, Inc.
  
 This software contains proprietary and confidential information,
 including trade secrets, belonging to Gaussian, Inc.
  
 This software is provided under written license and may be
 used, copied, transmitted, or stored only in accord with that
 written license.
  
 The following legend is applicable only to US Government
 contracts under FAR:
  
                    RESTRICTED RIGHTS LEGEND
  
 Use, reproduction and disclosure by the US Government is
 subject to restrictions as set forth in subparagraphs (a)
 and (c) of the Commercial Computer Software - Restricted
 Rights clause in FAR 52.227-19.
  
 Gaussian, Inc.
 340 Quinnipiac St., Bldg. 40, Wallingford CT 06492
  
  
 ---------------------------------------------------------------
 Warning -- This program may not be used in any manner that
 competes with the business of Gaussian, Inc. or will provide
 assistance to any competitor of Gaussian, Inc.  The licensee
 of this program is prohibited from giving any competitor of
 Gaussian, Inc. access to this program.  By using this program,
 the user acknowledges that Gaussian, Inc. is engaged in the
 business of creating and licensing software in the field of
 computational chemistry and represents and warrants to the
 licensee that it is not a competitor of Gaussian, Inc. and that
 it will not use this program in any manner prohibited above.
 ---------------------------------------------------------------
  

 Cite this work as:
 Gaussian 16, Revision B.01,
 M. J. Frisch, G. W. Trucks, H. B. Schlegel, G. E. Scuseria, 
 M. A. Robb, J. R. Cheeseman, G. Scalmani, V. Barone, 
 G. A. Petersson, H. Nakatsuji, X. Li, M. Caricato, A. V. Marenich, 
 J. Bloino, B. G. Janesko, R. Gomperts, B. Mennucci, H. P. Hratchian, 
 J. V. Ortiz, A. F. Izmaylov, J. L. Sonnenberg, D. Williams-Young, 
 F. Ding, F. Lipparini, F. Egidi, J. Goings, B. Peng, A. Petrone, 
 T. Henderson, D. Ranasinghe, V. G. Zakrzewski, J. Gao, N. Rega, 
 G. Zheng, W. Liang, M. Hada, M. Ehara, K. Toyota, R. Fukuda, 
 J. Hasegawa, M. Ishida, T. Nakajima, Y. Honda, O. Kitao, H. Nakai, 
 T. Vreven, K. Throssell, J. A. Montgomery, Jr., J. E. Peralta, 
 F. Ogliaro, M. J. Bearpark, J. J. Heyd, E. N. Brothers, K. N. Kudin, 
 V. N. Staroverov, T. A. Keith, R. Kobayashi, J. Normand, 
 K. Raghavachari, A. P. Rendell, J. C. Burant, S. S. Iyengar, 
 J. Tomasi, M. Cossi, J. M. Millam, M. Klene, C. Adamo, R. Cammi, 
 J. W. Ochterski, R. L. Martin, K. Morokuma, O. Farkas, 
 J. B. Foresman, and D. J. Fox, Gaussian, Inc., Wallingford CT, 2016.
 
 ******************************************
 Gaussian 16:  ES64L-G16RevB.01 20-Dec-2017
                21-Nov-2022 
 ******************************************
 %nprocshared=32
 Will use up to   32 processors via shared memory.
 %mem=120GB
 %chk=_conf039.chk
 ----------------------------------------
 #P wB97XD/6-311++G(d,p) scf=maxcycle=512
 ----------------------------------------
 1/38=1,172=1/1;
 2/12=2,17=6,18=5,40=1/2;
 3/5=4,6=6,7=1111,11=2,25=1,30=1,74=-58/1,2,3;
 4//1;
 5/5=2,7=512,38=5/2;
 6/7=2,8=2,9=2,10=2,28=1/1;
 99/5=1,9=1/99;
 Leave Link    1 at Mon Nov 21 14:55:13 2022, MaxMem= 16106127360 cpu:               1.4 elap:               0.0
 (Enter /opt/ap/G16/B01/g16/l101.exe)
 ----------------------------
 _conf039.gjf nmol_natom 1_19
 ----------------------------
 Symbolic Z-matrix:
 Charge =  0 Multiplicity = 1
 C
 C                    1     1.4088 
 C                    1     1.4229   2     117.24957 
 C                    2     1.41888  1     119.07595  3     0.1651   0
 C                    2     1.42228  1     117.46262  3    -179.44444  0
 C                    1     1.4244   2     119.00294  4     179.7374  0
 C                    3     1.3551   1     122.33979  2    -0.36121  0
 O                    3     1.37616  1     115.04371  2    -179.59313  0
 C                    4     1.34578  2     121.3021  1     0.17278  0
 H                    4     0.93023  2     119.33469  1    -179.75965  0
 C                    5     1.34487  2     122.06074  1    -0.32265  0
 H                    5     0.92958  2     118.96449  1     179.64672  0
 C                    6     1.35981  1     121.11124  2     0.11625  0
 H                    6     0.93     1     119.43671  2    -179.8727  0
 H                    7     0.93053  3     120.28038  1    -179.76477  0
 H                    8     0.81992  3     109.48786  1     15.      0
 H                    9     0.93027  4     119.71918  2     179.60144  0
 H                    11    0.92988  5     119.70373  2    -179.69197  0
 H                    13    0.93033  6     120.14525  1     179.85241  0
 
 ITRead=  0  0  0  0  0  0  0  0  0  0  0  0  0  0  0  0  0  0  0
 MicOpt= -1 -1 -1 -1 -1 -1 -1 -1 -1 -1 -1 -1 -1 -1 -1 -1 -1 -1 -1
 NAtoms=     19 NQM=       19 NQMF=       0 NMMI=      0 NMMIF=      0
                NMic=       0 NMicF=      0.
                    Isotopes and Nuclear Properties:
 (Nuclear quadrupole moments (NQMom) in fm**2, nuclear magnetic moments (NMagM)
  in nuclear magnetons)

  Atom         1           2           3           4           5           6           7           8           9          10
 IAtWgt=          12          12          12          12          12          12          12          16          12           1
 AtmWgt=  12.0000000  12.0000000  12.0000000  12.0000000  12.0000000  12.0000000  12.0000000  15.9949146  12.0000000   1.0078250
 NucSpn=           0           0           0           0           0           0           0           0           0           1
 AtZEff=  -0.0000000  -0.0000000  -0.0000000  -0.0000000  -0.0000000  -0.0000000  -0.0000000  -0.0000000  -0.0000000  -0.0000000
 NQMom=    0.0000000   0.0000000   0.0000000   0.0000000   0.0000000   0.0000000   0.0000000   0.0000000   0.0000000   0.0000000
 NMagM=    0.0000000   0.0000000   0.0000000   0.0000000   0.0000000   0.0000000   0.0000000   0.0000000   0.0000000   2.7928460
 AtZNuc=   6.0000000   6.0000000   6.0000000   6.0000000   6.0000000   6.0000000   6.0000000   8.0000000   6.0000000   1.0000000

  Atom        11          12          13          14          15          16          17          18          19
 IAtWgt=          12           1          12           1           1           1           1           1           1
 AtmWgt=  12.0000000   1.0078250  12.0000000   1.0078250   1.0078250   1.0078250   1.0078250   1.0078250   1.0078250
 NucSpn=           0           1           0           1           1           1           1           1           1
 AtZEff=  -0.0000000  -0.0000000  -0.0000000  -0.0000000  -0.0000000  -0.0000000  -0.0000000  -0.0000000  -0.0000000
 NQMom=    0.0000000   0.0000000   0.0000000   0.0000000   0.0000000   0.0000000   0.0000000   0.0000000   0.0000000
 NMagM=    0.0000000   2.7928460   0.0000000   2.7928460   2.7928460   2.7928460   2.7928460   2.7928460   2.7928460
 AtZNuc=   6.0000000   1.0000000   6.0000000   1.0000000   1.0000000   1.0000000   1.0000000   1.0000000   1.0000000
 Leave Link  101 at Mon Nov 21 14:55:13 2022, MaxMem= 16106127360 cpu:               5.2 elap:               0.2
 (Enter /opt/ap/G16/B01/g16/l202.exe)
                          Input orientation:                          
 ---------------------------------------------------------------------
 Center     Atomic      Atomic             Coordinates (Angstroms)
 Number     Number       Type             X           Y           Z
 ---------------------------------------------------------------------
      1          6           0        0.000000    0.000000    0.000000
      2          6           0        0.000000    0.000000    1.408795
      3          6           0        1.264986    0.000000   -0.651498
      4          6           0        1.240062    0.003573    2.098326
      5          6           0       -1.261945   -0.012237    2.064707
      6          6           0       -1.245741   -0.009299   -0.690628
      7          6           0        2.433644    0.007218    0.034427
      8          8           0        1.212032    0.008854   -2.026607
      9          6           0        2.409936    0.010412    1.433147
     10          1           0        1.244276    0.000184    3.028545
     11          6           0       -2.421000   -0.017057    1.382624
     12          1           0       -1.286266   -0.017488    2.993953
     13          6           0       -2.424704   -0.015738   -0.013076
     14          1           0       -1.252769   -0.011151   -1.620598
     15          1           0        3.245045    0.010306   -0.421097
     16          1           0        0.456103    0.212906   -2.269923
     17          1           0        3.210137    0.018260    1.907515
     18          1           0       -3.227740   -0.020753    1.845035
     19          1           0       -3.230632   -0.019714   -0.477804
 ---------------------------------------------------------------------
                    Distance matrix (angstroms):
                    1          2          3          4          5
     1  C    0.000000
     2  C    1.408795   0.000000
     3  C    1.422898   2.417643   0.000000
     4  C    2.437363   1.418880   2.749940   0.000000
     5  C    2.419849   1.422278   3.709892   2.502283   0.000000
     6  C    1.424403   2.441216   2.511049   3.735994   2.755385
     7  C    2.433898   2.794917   1.355104   2.384184   4.216609
     8  O    2.361406   3.642951   1.376157   4.125032   4.781198
     9  C    2.803892   2.410081   2.378396   1.345777   3.725867
    10  H    3.274188   2.042501   3.680101   0.930234   2.685197
    11  C    2.788042   2.421201   4.210040   3.730420   1.344868
    12  H    3.258610   2.041448   4.449551   2.680471   0.929579
    13  C    2.424790   2.810899   3.744548   4.229527   2.381009
    14  H    2.048388   3.278228   2.697845   4.477144   3.685317
    15  H    3.272269   3.725443   1.993445   3.219859   5.147104
    16  H    2.325061   3.712995   1.821790   4.442974   4.668126
    17  H    3.734157   3.248697   3.214420   1.979348   4.474947
    18  H    3.717915   3.257153   5.139815   4.475043   1.978050
    19  H    3.265834   3.741207   4.499015   5.159854   3.215610
                    6          7          8          9         10
     6  C    0.000000
     7  C    3.750180   0.000000
     8  O    2.797466   2.395871   0.000000
     9  C    4.227858   1.398925   3.661267   0.000000
    10  H    4.475771   3.221706   5.055262   1.975895   0.000000
    11  C    2.383205   5.038431   4.982213   4.831278   4.017910
    12  H    3.684813   4.753644   5.607870   4.012331   2.530840
    13  C    1.359806   4.858634   4.157013   5.046383   4.765829
    14  H    0.929998   4.040926   2.498097   4.768777   5.277300
    15  H    4.498910   0.930528   2.590522   2.033624   3.987882
    16  H    2.332342   3.043518   0.819920   4.191801   5.360991
    17  H    5.158096   2.027689   4.412463   0.930273   2.263105
    18  H    3.218391   5.943934   5.890846   5.652788   4.626021
    19  H    1.996295   5.687453   4.704984   5.955556   5.685040
                   11         12         13         14         15
    11  C    0.000000
    12  H    1.970788   0.000000
    13  C    1.395705   3.215317   0.000000
    14  H    3.222443   4.614677   1.989366   0.000000
    15  H    5.946277   5.674162   5.684470   4.655061   0.000000
    16  H    4.655287   5.549533   3.666700   1.841757   3.352223
    17  H    5.655657   4.625934   5.953256   5.689110   2.328887
    18  H    0.929876   2.255958   2.024221   3.988887   6.858080
    19  H    2.028966   3.979153   0.930327   2.284293   6.475995
                   16         17         18         19
    16  H    0.000000
    17  H    5.007353   0.000000
    18  H    5.527945   6.438299   0.000000
    19  H    4.105828   6.868384   2.322841   0.000000
 Stoichiometry    C10H8O
 Framework group  C1[X(C10H8O)]
 Deg. of freedom    51
 Full point group                 C1      NOp   1
 Largest Abelian subgroup         C1      NOp   1
 Largest concise Abelian subgroup C1      NOp   1
                         Standard orientation:                         
 ---------------------------------------------------------------------
 Center     Atomic      Atomic             Coordinates (Angstroms)
 Number     Number       Type             X           Y           Z
 ---------------------------------------------------------------------
      1          6           0       -0.025967    0.425507   -0.001883
      2          6           0       -0.326463   -0.950851    0.004703
      3          6           0        1.348847    0.792154   -0.011701
      4          6           0        0.737982   -1.889029    0.004860
      5          6           0       -1.699323   -1.322500    0.002289
      6          6           0       -1.095761    1.365949   -0.007741
      7          6           0        2.344324   -0.127256   -0.007533
      8          8           0        1.590479    2.146928   -0.008992
      9          6           0        2.022835   -1.488704    0.002326
     10          1           0        0.543662   -2.798740    0.005797
     11          6           0       -2.686223   -0.408883    0.000485
     12          1           0       -1.921325   -2.225180    0.001512
     13          6           0       -2.392131    0.955475   -0.004700
     14          1           0       -0.904276    2.275999   -0.013902
     15          1           0        3.234218    0.144699   -0.010919
     16          1           0        0.905132    2.546598    0.197966
     17          1           0        2.703471   -2.122824    0.008107
     18          1           0       -3.573038   -0.688564    0.003270
     19          1           0       -3.080395    1.581413   -0.006533
 ---------------------------------------------------------------------
 Rotational constants (GHZ):           2.0027139           1.1601297           0.7346892
 Leave Link  202 at Mon Nov 21 14:55:13 2022, MaxMem= 16106127360 cpu:               0.3 elap:               0.0
 (Enter /opt/ap/G16/B01/g16/l301.exe)
 Standard basis: 6-311++G(d,p) (5D, 7F)
 Ernie: Thresh=  0.10000D-02 Tol=  0.10000D-05 Strict=F.
 There are   309 symmetry adapted cartesian basis functions of A   symmetry.
 There are   298 symmetry adapted basis functions of A   symmetry.
   298 basis functions,   468 primitive gaussians,   309 cartesian basis functions
    38 alpha electrons       38 beta electrons
       nuclear repulsion energy       563.4830701572 Hartrees.
 IExCor= 4639 DFT=T Ex+Corr=wB97XD ExCW=0 ScaHFX=  1.000000
 ScaDFX=  1.000000  1.000000  1.000000  1.000000 ScalE2=  1.000000  1.000000
 IRadAn=      5 IRanWt=     -1 IRanGd=            0 ICorTp=0 IEmpDi=121
 HFx  wShort=  0.000000 wLong=  0.200000 cFull=  0.222036 cShort=  0.000000 cLong=  0.777964
 DFx  wShort=  0.000000 wLong=  0.200000 cFull=  0.000000 cShort=  0.000000 cLong=  1.000000
 NAtoms=   19 NActive=   19 NUniq=   19 SFac= 1.00D+00 NAtFMM=   60 NAOKFM=F Big=F
 Integral buffers will be    131072 words long.
 Raffenetti 2 integral format.
 Two-electron integral symmetry is turned on.
 R6Disp:  Grimme-D2 Dispersion energy=       -0.0102046255 Hartrees.
 Nuclear repulsion after empirical dispersion term =      563.4728655317 Hartrees.
 Leave Link  301 at Mon Nov 21 14:55:13 2022, MaxMem= 16106127360 cpu:               1.2 elap:               0.0
 (Enter /opt/ap/G16/B01/g16/l302.exe)
 NPDir=0 NMtPBC=     1 NCelOv=     1 NCel=       1 NClECP=     1 NCelD=      1
         NCelK=      1 NCelE2=     1 NClLst=     1 CellRange=     0.0.
 One-electron integrals computed using PRISM.
 One-electron integral symmetry used in STVInt
 NBasis=   298 RedAO= T EigKep=  1.98D-06  NBF=   298
 NBsUse=   295 1.00D-06 EigRej=  9.64D-07 NBFU=   295
 Precomputing XC quadrature grid using
 IXCGrd= 4 IRadAn=           5 IRanWt=          -1 IRanGd=           0 AccXCQ= 0.00D+00.
 Generated NRdTot=       0 NPtTot=           0 NUsed=           0 NTot=          32
 NSgBfM=   309   309   309   309   309 MxSgAt=    19 MxSgA2=    19.
 Leave Link  302 at Mon Nov 21 14:55:13 2022, MaxMem= 16106127360 cpu:               6.3 elap:               0.2
 (Enter /opt/ap/G16/B01/g16/l303.exe)
 DipDrv:  MaxL=1.
 Leave Link  303 at Mon Nov 21 14:55:13 2022, MaxMem= 16106127360 cpu:               1.4 elap:               0.0
 (Enter /opt/ap/G16/B01/g16/l401.exe)
 ExpMin= 3.60D-02 ExpMax= 8.59D+03 ExpMxC= 1.30D+03 IAcc=3 IRadAn=         5 AccDes= 0.00D+00
 Harris functional with IExCor= 4639 and IRadAn=       5 diagonalized for initial guess.
 HarFok:  IExCor= 4639 AccDes= 0.00D+00 IRadAn=         5 IDoV= 1 UseB2=F ITyADJ=14
 ICtDFT=  3500011 ScaDFX=  1.000000  1.000000  1.000000  1.000000
 FoFCou: FMM=F IPFlag=           0 FMFlag=      100000 FMFlg1=           0
         NFxFlg=           0 DoJE=T BraDBF=F KetDBF=T FulRan=T
         wScrn=  0.000000 ICntrl=       500 IOpCl=  0 I1Cent=   200000004 NGrid=           0
         NMat0=    1 NMatS0=      1 NMatT0=    0 NMatD0=    1 NMtDS0=    0 NMtDT0=    0
 Petite list used in FoFCou.
 Harris En= -440.613608809974    
 JPrj=0 DoOrth=F DoCkMO=F.
 Leave Link  401 at Mon Nov 21 14:55:14 2022, MaxMem= 16106127360 cpu:              16.5 elap:               0.5
 (Enter /opt/ap/G16/B01/g16/l502.exe)
 Integral symmetry usage will be decided dynamically.
 Closed shell SCF:
 Using DIIS extrapolation, IDIIS=  1040.
 NGot= 16106127360 LenX= 16105923535 LenY= 16105827613
 Requested convergence on RMS density matrix=1.00D-08 within 512 cycles.
 Requested convergence on MAX density matrix=1.00D-06.
 Requested convergence on             energy=1.00D-06.
 No special actions if energy rises.
 Fock matrices will be formed incrementally for  20 cycles.

 Cycle   1  Pass 1  IDiag  1:
 FoFJK:  IHMeth= 1 ICntrl=       0 DoSepK=T KAlg= 0 I1Cent=           0 FoldK=F
 IRaf=         1 NMat=       1 IRICut=       1 DoRegI=T DoRafI=F ISym2E= 0 IDoP0=0 IntGTp=1.
 FoFCou: FMM=F IPFlag=           0 FMFlag=      100000 FMFlg1=           0
         NFxFlg=           0 DoJE=T BraDBF=F KetDBF=F FulRan=T
         wScrn=  0.000000 ICntrl=       500 IOpCl=  0 I1Cent=           0 NGrid=           0
         NMat0=    1 NMatS0=      1 NMatT0=    0 NMatD0=    1 NMtDS0=    0 NMtDT0=    0
 Symmetry not used in FoFCou.
 E= -460.745308473106    
 DIIS: error= 5.64D-02 at cycle   1 NSaved=   1.
 NSaved= 1 IEnMin= 1 EnMin= -460.745308473106     IErMin= 1 ErrMin= 5.64D-02
 ErrMax= 5.64D-02  0.00D+00 EMaxC= 1.00D-01 BMatC= 9.62D-01 BMatP= 9.62D-01
 IDIUse=3 WtCom= 4.36D-01 WtEn= 5.64D-01
 Coeff-Com:  0.100D+01
 Coeff-En:   0.100D+01
 Coeff:      0.100D+01
 Gap=     0.333 Goal=   None    Shift=    0.000
 GapD=    0.333 DampG=1.000 DampE=0.500 DampFc=0.5000 IDamp=-1.
 Damping current iteration by 5.00D-01
 RMSDP=1.54D-02 MaxDP=1.28D+00              OVMax= 1.59D-01

 Cycle   2  Pass 1  IDiag  1:
 RMSU=  4.78D-03    CP:  9.15D-01
 E= -460.814817270645     Delta-E=       -0.069508797540 Rises=F Damp=T
 DIIS: error= 2.83D-02 at cycle   2 NSaved=   2.
 NSaved= 2 IEnMin= 2 EnMin= -460.814817270645     IErMin= 2 ErrMin= 2.83D-02
 ErrMax= 2.83D-02  0.00D+00 EMaxC= 1.00D-01 BMatC= 2.08D-01 BMatP= 9.62D-01
 IDIUse=3 WtCom= 7.17D-01 WtEn= 2.83D-01
 Coeff-Com: -0.692D+00 0.169D+01
 Coeff-En:   0.000D+00 0.100D+01
 Coeff:     -0.496D+00 0.150D+01
 Gap=     0.328 Goal=   None    Shift=    0.000
 RMSDP=1.41D-02 MaxDP=1.76D+00 DE=-6.95D-02 OVMax= 1.56D-01

 Cycle   3  Pass 1  IDiag  1:
 RMSU=  4.84D-03    CP:  7.30D-01  1.16D+00
 E= -460.859016952705     Delta-E=       -0.044199682060 Rises=F Damp=F
 DIIS: error= 1.33D-02 at cycle   3 NSaved=   3.
 NSaved= 3 IEnMin= 3 EnMin= -460.859016952705     IErMin= 3 ErrMin= 1.33D-02
 ErrMax= 1.33D-02  0.00D+00 EMaxC= 1.00D-01 BMatC= 3.24D-02 BMatP= 2.08D-01
 IDIUse=3 WtCom= 8.67D-01 WtEn= 1.33D-01
 Coeff-Com: -0.361D+00 0.767D+00 0.593D+00
 Coeff-En:   0.000D+00 0.000D+00 0.100D+01
 Coeff:     -0.313D+00 0.666D+00 0.647D+00
 Gap=     0.313 Goal=   None    Shift=    0.000
 RMSDP=3.15D-03 MaxDP=1.54D-01 DE=-4.42D-02 OVMax= 7.18D-02

 Cycle   4  Pass 1  IDiag  1:
 RMSU=  1.89D-03    CP:  7.19D-01  1.38D+00  5.58D-01
 E= -460.887381755623     Delta-E=       -0.028364802918 Rises=F Damp=F
 DIIS: error= 2.14D-03 at cycle   4 NSaved=   4.
 NSaved= 4 IEnMin= 4 EnMin= -460.887381755623     IErMin= 4 ErrMin= 2.14D-03
 ErrMax= 2.14D-03  0.00D+00 EMaxC= 1.00D-01 BMatC= 1.39D-03 BMatP= 3.24D-02
 IDIUse=3 WtCom= 9.79D-01 WtEn= 2.14D-02
 Coeff-Com: -0.119D+00 0.255D+00 0.298D+00 0.567D+00
 Coeff-En:   0.000D+00 0.000D+00 0.000D+00 0.100D+01
 Coeff:     -0.117D+00 0.249D+00 0.291D+00 0.576D+00
 Gap=     0.304 Goal=   None    Shift=    0.000
 RMSDP=4.53D-04 MaxDP=1.45D-02 DE=-2.84D-02 OVMax= 1.04D-02

 Cycle   5  Pass 1  IDiag  1:
 RMSU=  3.13D-04    CP:  7.17D-01  1.38D+00  6.17D-01  9.29D-01
 E= -460.888646160335     Delta-E=       -0.001264404712 Rises=F Damp=F
 DIIS: error= 3.66D-04 at cycle   5 NSaved=   5.
 NSaved= 5 IEnMin= 5 EnMin= -460.888646160335     IErMin= 5 ErrMin= 3.66D-04
 ErrMax= 3.66D-04  0.00D+00 EMaxC= 1.00D-01 BMatC= 1.75D-05 BMatP= 1.39D-03
 IDIUse=3 WtCom= 9.96D-01 WtEn= 3.66D-03
 Coeff-Com:  0.127D-01-0.269D-01 0.320D-02 0.128D+00 0.883D+00
 Coeff-En:   0.000D+00 0.000D+00 0.000D+00 0.000D+00 0.100D+01
 Coeff:      0.127D-01-0.268D-01 0.319D-02 0.127D+00 0.884D+00
 Gap=     0.304 Goal=   None    Shift=    0.000
 RMSDP=1.47D-04 MaxDP=7.77D-03 DE=-1.26D-03 OVMax= 3.41D-03

 Cycle   6  Pass 1  IDiag  1:
 RMSU=  1.26D-04    CP:  7.17D-01  1.39D+00  6.32D-01  9.39D-01  1.00D+00
 E= -460.888673125716     Delta-E=       -0.000026965381 Rises=F Damp=F
 DIIS: error= 2.12D-04 at cycle   6 NSaved=   6.
 NSaved= 6 IEnMin= 6 EnMin= -460.888673125716     IErMin= 6 ErrMin= 2.12D-04
 ErrMax= 2.12D-04  0.00D+00 EMaxC= 1.00D-01 BMatC= 4.47D-06 BMatP= 1.75D-05
 IDIUse=3 WtCom= 9.98D-01 WtEn= 2.12D-03
 Coeff-Com:  0.172D-01-0.368D-01-0.267D-01-0.592D-02 0.368D+00 0.684D+00
 Coeff-En:   0.000D+00 0.000D+00 0.000D+00 0.000D+00 0.000D+00 0.100D+01
 Coeff:      0.172D-01-0.368D-01-0.267D-01-0.591D-02 0.367D+00 0.685D+00
 Gap=     0.304 Goal=   None    Shift=    0.000
 RMSDP=1.21D-04 MaxDP=7.54D-03 DE=-2.70D-05 OVMax= 1.08D-03

 Cycle   7  Pass 1  IDiag  1:
 RMSU=  4.58D-05    CP:  7.16D-01  1.39D+00  6.28D-01  9.74D-01  1.13D+00
                    CP:  9.60D-01
 E= -460.888679504917     Delta-E=       -0.000006379201 Rises=F Damp=F
 DIIS: error= 7.75D-05 at cycle   7 NSaved=   7.
 NSaved= 7 IEnMin= 7 EnMin= -460.888679504917     IErMin= 7 ErrMin= 7.75D-05
 ErrMax= 7.75D-05  0.00D+00 EMaxC= 1.00D-01 BMatC= 3.36D-07 BMatP= 4.47D-06
 IDIUse=1 WtCom= 1.00D+00 WtEn= 0.00D+00
 Coeff-Com:  0.119D-02-0.253D-02-0.300D-02-0.150D-01-0.598D-01 0.935D-01
 Coeff-Com:  0.986D+00
 Coeff:      0.119D-02-0.253D-02-0.300D-02-0.150D-01-0.598D-01 0.935D-01
 Coeff:      0.986D+00
 Gap=     0.304 Goal=   None    Shift=    0.000
 RMSDP=1.97D-05 MaxDP=1.73D-03 DE=-6.38D-06 OVMax= 8.12D-04

 Cycle   8  Pass 1  IDiag  1:
 RMSU=  1.25D-05    CP:  7.16D-01  1.39D+00  6.28D-01  9.74D-01  1.14D+00
                    CP:  1.02D+00  1.15D+00
 E= -460.888680564439     Delta-E=       -0.000001059522 Rises=F Damp=F
 DIIS: error= 2.51D-05 at cycle   8 NSaved=   8.
 NSaved= 8 IEnMin= 8 EnMin= -460.888680564439     IErMin= 8 ErrMin= 2.51D-05
 ErrMax= 2.51D-05  0.00D+00 EMaxC= 1.00D-01 BMatC= 1.04D-07 BMatP= 3.36D-07
 IDIUse=1 WtCom= 1.00D+00 WtEn= 0.00D+00
 Coeff-Com: -0.220D-02 0.475D-02 0.350D-02-0.411D-02-0.846D-01-0.772D-01
 Coeff-Com:  0.423D+00 0.736D+00
 Coeff:     -0.220D-02 0.475D-02 0.350D-02-0.411D-02-0.846D-01-0.772D-01
 Coeff:      0.423D+00 0.736D+00
 Gap=     0.304 Goal=   None    Shift=    0.000
 RMSDP=1.30D-05 MaxDP=7.57D-04 DE=-1.06D-06 OVMax= 2.62D-04

 Cycle   9  Pass 1  IDiag  1:
 RMSU=  4.39D-06    CP:  7.16D-01  1.39D+00  6.30D-01  9.72D-01  1.14D+00
                    CP:  1.08D+00  1.22D+00  1.03D+00
 E= -460.888680777481     Delta-E=       -0.000000213042 Rises=F Damp=F
 DIIS: error= 1.20D-05 at cycle   9 NSaved=   9.
 NSaved= 9 IEnMin= 9 EnMin= -460.888680777481     IErMin= 9 ErrMin= 1.20D-05
 ErrMax= 1.20D-05  0.00D+00 EMaxC= 1.00D-01 BMatC= 7.39D-09 BMatP= 1.04D-07
 IDIUse=1 WtCom= 1.00D+00 WtEn= 0.00D+00
 Coeff-Com: -0.669D-03 0.143D-02 0.137D-02 0.155D-02-0.116D-01-0.355D-01
 Coeff-Com: -0.523D-01 0.115D+00 0.981D+00
 Coeff:     -0.669D-03 0.143D-02 0.137D-02 0.155D-02-0.116D-01-0.355D-01
 Coeff:     -0.523D-01 0.115D+00 0.981D+00
 Gap=     0.304 Goal=   None    Shift=    0.000
 RMSDP=4.96D-06 MaxDP=3.75D-04 DE=-2.13D-07 OVMax= 1.51D-04

 Cycle  10  Pass 1  IDiag  1:
 RMSU=  1.60D-06    CP:  7.16D-01  1.39D+00  6.30D-01  9.71D-01  1.14D+00
                    CP:  1.08D+00  1.22D+00  1.19D+00  1.22D+00
 E= -460.888680811048     Delta-E=       -0.000000033567 Rises=F Damp=F
 DIIS: error= 5.11D-06 at cycle  10 NSaved=  10.
 NSaved=10 IEnMin=10 EnMin= -460.888680811048     IErMin=10 ErrMin= 5.11D-06
 ErrMax= 5.11D-06  0.00D+00 EMaxC= 1.00D-01 BMatC= 1.17D-09 BMatP= 7.39D-09
 IDIUse=1 WtCom= 1.00D+00 WtEn= 0.00D+00
 Coeff-Com:  0.108D-03-0.235D-03-0.637D-04 0.982D-03 0.746D-02 0.656D-03
 Coeff-Com: -0.552D-01-0.795D-01 0.228D+00 0.897D+00
 Coeff:      0.108D-03-0.235D-03-0.637D-04 0.982D-03 0.746D-02 0.656D-03
 Coeff:     -0.552D-01-0.795D-01 0.228D+00 0.897D+00
 Gap=     0.304 Goal=   None    Shift=    0.000
 RMSDP=1.40D-06 MaxDP=5.61D-05 DE=-3.36D-08 OVMax= 4.72D-05

 Cycle  11  Pass 1  IDiag  1:
 RMSU=  5.54D-07    CP:  7.16D-01  1.39D+00  6.30D-01  9.70D-01  1.14D+00
                    CP:  1.09D+00  1.22D+00  1.22D+00  1.35D+00  1.15D+00
 E= -460.888680815170     Delta-E=       -0.000000004122 Rises=F Damp=F
 DIIS: error= 1.50D-06 at cycle  11 NSaved=  11.
 NSaved=11 IEnMin=11 EnMin= -460.888680815170     IErMin=11 ErrMin= 1.50D-06
 ErrMax= 1.50D-06  0.00D+00 EMaxC= 1.00D-01 BMatC= 2.54D-10 BMatP= 1.17D-09
 IDIUse=1 WtCom= 1.00D+00 WtEn= 0.00D+00
 Coeff-Com:  0.142D-03-0.305D-03-0.236D-03 0.111D-03 0.426D-02 0.508D-02
 Coeff-Com: -0.900D-02-0.480D-01-0.796D-01 0.318D+00 0.810D+00
 Coeff:      0.142D-03-0.305D-03-0.236D-03 0.111D-03 0.426D-02 0.508D-02
 Coeff:     -0.900D-02-0.480D-01-0.796D-01 0.318D+00 0.810D+00
 Gap=     0.304 Goal=   None    Shift=    0.000
 RMSDP=4.48D-07 MaxDP=1.70D-05 DE=-4.12D-09 OVMax= 1.76D-05

 Cycle  12  Pass 1  IDiag  1:
 RMSU=  2.17D-07    CP:  7.16D-01  1.39D+00  6.30D-01  9.71D-01  1.14D+00
                    CP:  1.09D+00  1.22D+00  1.22D+00  1.38D+00  1.23D+00
                    CP:  1.08D+00
 E= -460.888680815873     Delta-E=       -0.000000000702 Rises=F Damp=F
 DIIS: error= 6.74D-07 at cycle  12 NSaved=  12.
 NSaved=12 IEnMin=12 EnMin= -460.888680815873     IErMin=12 ErrMin= 6.74D-07
 ErrMax= 6.74D-07  0.00D+00 EMaxC= 1.00D-01 BMatC= 1.62D-11 BMatP= 2.54D-10
 IDIUse=1 WtCom= 1.00D+00 WtEn= 0.00D+00
 Coeff-Com: -0.805D-05 0.180D-04-0.424D-05-0.125D-03-0.809D-03-0.140D-03
 Coeff-Com:  0.799D-02 0.106D-01-0.387D-01-0.117D+00-0.282D-01 0.117D+01
 Coeff:     -0.805D-05 0.180D-04-0.424D-05-0.125D-03-0.809D-03-0.140D-03
 Coeff:      0.799D-02 0.106D-01-0.387D-01-0.117D+00-0.282D-01 0.117D+01
 Gap=     0.304 Goal=   None    Shift=    0.000
 RMSDP=4.20D-07 MaxDP=2.36D-05 DE=-7.02D-10 OVMax= 8.70D-06

 Cycle  13  Pass 1  IDiag  1:
 RMSU=  1.11D-07    CP:  7.16D-01  1.39D+00  6.30D-01  9.71D-01  1.14D+00
                    CP:  1.09D+00  1.22D+00  1.22D+00  1.38D+00  1.25D+00
                    CP:  1.24D+00  1.36D+00
 E= -460.888680815975     Delta-E=       -0.000000000103 Rises=F Damp=F
 DIIS: error= 1.26D-07 at cycle  13 NSaved=  13.
 NSaved=13 IEnMin=13 EnMin= -460.888680815975     IErMin=13 ErrMin= 1.26D-07
 ErrMax= 1.26D-07  0.00D+00 EMaxC= 1.00D-01 BMatC= 3.15D-12 BMatP= 1.62D-11
 IDIUse=1 WtCom= 1.00D+00 WtEn= 0.00D+00
 Coeff-Com: -0.121D-04 0.263D-04 0.143D-04-0.506D-04-0.534D-03-0.428D-03
 Coeff-Com:  0.299D-02 0.754D-02-0.399D-02-0.564D-01-0.734D-01 0.347D+00
 Coeff-Com:  0.778D+00
 Coeff:     -0.121D-04 0.263D-04 0.143D-04-0.506D-04-0.534D-03-0.428D-03
 Coeff:      0.299D-02 0.754D-02-0.399D-02-0.564D-01-0.734D-01 0.347D+00
 Coeff:      0.778D+00
 Gap=     0.304 Goal=   None    Shift=    0.000
 RMSDP=1.45D-07 MaxDP=7.65D-06 DE=-1.03D-10 OVMax= 1.87D-06

 Cycle  14  Pass 1  IDiag  1:
 RMSU=  2.39D-08    CP:  7.16D-01  1.39D+00  6.30D-01  9.71D-01  1.14D+00
                    CP:  1.09D+00  1.22D+00  1.22D+00  1.38D+00  1.25D+00
                    CP:  1.24D+00  1.47D+00  1.26D+00
 E= -460.888680815987     Delta-E=       -0.000000000011 Rises=F Damp=F
 DIIS: error= 8.62D-08 at cycle  14 NSaved=  14.
 NSaved=14 IEnMin=14 EnMin= -460.888680815987     IErMin=14 ErrMin= 8.62D-08
 ErrMax= 8.62D-08  0.00D+00 EMaxC= 1.00D-01 BMatC= 5.02D-13 BMatP= 3.15D-12
 IDIUse=1 WtCom= 1.00D+00 WtEn= 0.00D+00
 Coeff-Com: -0.174D-05 0.360D-05 0.408D-05 0.900D-05 0.377D-04-0.913D-04
 Coeff-Com: -0.115D-02-0.761D-04 0.634D-02 0.998D-02-0.119D-01-0.169D+00
 Coeff-Com:  0.161D+00 0.100D+01
 Coeff:     -0.174D-05 0.360D-05 0.408D-05 0.900D-05 0.377D-04-0.913D-04
 Coeff:     -0.115D-02-0.761D-04 0.634D-02 0.998D-02-0.119D-01-0.169D+00
 Coeff:      0.161D+00 0.100D+01
 Gap=     0.304 Goal=   None    Shift=    0.000
 RMSDP=9.13D-08 MaxDP=5.39D-06 DE=-1.14D-11 OVMax= 1.49D-06

 Cycle  15  Pass 1  IDiag  1:
 RMSU=  1.20D-08    CP:  7.16D-01  1.39D+00  6.30D-01  9.71D-01  1.14D+00
                    CP:  1.08D+00  1.22D+00  1.22D+00  1.38D+00  1.24D+00
                    CP:  1.25D+00  1.53D+00  1.48D+00  1.28D+00
 E= -460.888680815984     Delta-E=        0.000000000002 Rises=F Damp=F
 DIIS: error= 2.55D-08 at cycle  15 NSaved=  15.
 NSaved=15 IEnMin=14 EnMin= -460.888680815987     IErMin=15 ErrMin= 2.55D-08
 ErrMax= 2.55D-08  0.00D+00 EMaxC= 1.00D-01 BMatC= 5.87D-14 BMatP= 5.02D-13
 IDIUse=1 WtCom= 1.00D+00 WtEn= 0.00D+00
 Coeff-Com:  0.677D-06-0.151D-05-0.663D-06 0.512D-05 0.524D-04 0.343D-04
 Coeff-Com: -0.350D-03-0.613D-03 0.390D-03 0.558D-02 0.951D-02-0.424D-01
 Coeff-Com: -0.111D+00 0.460D-01 0.109D+01
 Coeff:      0.677D-06-0.151D-05-0.663D-06 0.512D-05 0.524D-04 0.343D-04
 Coeff:     -0.350D-03-0.613D-03 0.390D-03 0.558D-02 0.951D-02-0.424D-01
 Coeff:     -0.111D+00 0.460D-01 0.109D+01
 Gap=     0.304 Goal=   None    Shift=    0.000
 RMSDP=2.29D-08 MaxDP=1.06D-06 DE= 2.27D-12 OVMax= 4.89D-07

 Cycle  16  Pass 1  IDiag  1:
 RMSU=  3.84D-09    CP:  7.16D-01  1.39D+00  6.30D-01  9.71D-01  1.14D+00
                    CP:  1.08D+00  1.22D+00  1.22D+00  1.38D+00  1.24D+00
                    CP:  1.25D+00  1.54D+00  1.54D+00  1.51D+00  1.30D+00
 E= -460.888680815983     Delta-E=        0.000000000001 Rises=F Damp=F
 DIIS: error= 1.34D-08 at cycle  16 NSaved=  16.
 NSaved=16 IEnMin=14 EnMin= -460.888680815987     IErMin=16 ErrMin= 1.34D-08
 ErrMax= 1.34D-08  0.00D+00 EMaxC= 1.00D-01 BMatC= 1.24D-14 BMatP= 5.87D-14
 IDIUse=1 WtCom= 1.00D+00 WtEn= 0.00D+00
 Coeff-Com:  0.474D-06-0.102D-05-0.836D-06 0.614D-06 0.163D-04 0.264D-04
 Coeff-Com: -0.143D-04-0.236D-03-0.540D-03 0.929D-03 0.600D-02 0.197D-02
 Coeff-Com: -0.647D-01-0.829D-01 0.407D+00 0.732D+00
 Coeff:      0.474D-06-0.102D-05-0.836D-06 0.614D-06 0.163D-04 0.264D-04
 Coeff:     -0.143D-04-0.236D-03-0.540D-03 0.929D-03 0.600D-02 0.197D-02
 Coeff:     -0.647D-01-0.829D-01 0.407D+00 0.732D+00
 Gap=     0.304 Goal=   None    Shift=    0.000
 RMSDP=3.21D-09 MaxDP=3.15D-07 DE= 1.36D-12 OVMax= 1.32D-07

 SCF Done:  E(RwB97XD) =  -460.888680816     A.U. after   16 cycles
            NFock= 16  Conv=0.32D-08     -V/T= 1.9983
 KE= 4.616684694978D+02 PE=-2.201249500827D+03 EE= 7.152194849812D+02
 Leave Link  502 at Mon Nov 21 14:55:40 2022, MaxMem= 16106127360 cpu:             826.4 elap:              26.2
 (Enter /opt/ap/G16/B01/g16/l601.exe)
 Copying SCF densities to generalized density rwf, IOpCl= 0 IROHF=0.

 **********************************************************************

            Population analysis using the SCF Density.

 **********************************************************************

 Orbital symmetries:
       Occupied  (A) (A) (A) (A) (A) (A) (A) (A) (A) (A) (A) (A)
                 (A) (A) (A) (A) (A) (A) (A) (A) (A) (A) (A) (A)
                 (A) (A) (A) (A) (A) (A) (A) (A) (A) (A) (A) (A)
                 (A) (A)
       Virtual   (A) (A) (A) (A) (A) (A) (A) (A) (A) (A) (A) (A)
                 (A) (A) (A) (A) (A) (A) (A) (A) (A) (A) (A) (A)
                 (A) (A) (A) (A) (A) (A) (A) (A) (A) (A) (A) (A)
                 (A) (A) (A) (A) (A) (A) (A) (A) (A) (A) (A) (A)
                 (A) (A) (A) (A) (A) (A) (A) (A) (A) (A) (A) (A)
                 (A) (A) (A) (A) (A) (A) (A) (A) (A) (A) (A) (A)
                 (A) (A) (A) (A) (A) (A) (A) (A) (A) (A) (A) (A)
                 (A) (A) (A) (A) (A) (A) (A) (A) (A) (A) (A) (A)
                 (A) (A) (A) (A) (A) (A) (A) (A) (A) (A) (A) (A)
                 (A) (A) (A) (A) (A) (A) (A) (A) (A) (A) (A) (A)
                 (A) (A) (A) (A) (A) (A) (A) (A) (A) (A) (A) (A)
                 (A) (A) (A) (A) (A) (A) (A) (A) (A) (A) (A) (A)
                 (A) (A) (A) (A) (A) (A) (A) (A) (A) (A) (A) (A)
                 (A) (A) (A) (A) (A) (A) (A) (A) (A) (A) (A) (A)
                 (A) (A) (A) (A) (A) (A) (A) (A) (A) (A) (A) (A)
                 (A) (A) (A) (A) (A) (A) (A) (A) (A) (A) (A) (A)
                 (A) (A) (A) (A) (A) (A) (A) (A) (A) (A) (A) (A)
                 (A) (A) (A) (A) (A) (A) (A) (A) (A) (A) (A) (A)
                 (A) (A) (A) (A) (A) (A) (A) (A) (A) (A) (A) (A)
                 (A) (A) (A) (A) (A) (A) (A) (A) (A) (A) (A) (A)
                 (A) (A) (A) (A) (A) (A) (A) (A) (A) (A) (A) (A)
                 (A) (A) (A) (A) (A)
 The electronic state is 1-A.
 Alpha  occ. eigenvalues --  -19.26542 -10.35284 -10.30059 -10.29997 -10.28377
 Alpha  occ. eigenvalues --  -10.27683 -10.27475 -10.27201 -10.27194 -10.26633
 Alpha  occ. eigenvalues --  -10.26477  -1.20053  -0.99092  -0.94557  -0.88851
 Alpha  occ. eigenvalues --   -0.86540  -0.84747  -0.75685  -0.74049  -0.72408
 Alpha  occ. eigenvalues --   -0.67919  -0.64769  -0.61654  -0.60439  -0.56101
 Alpha  occ. eigenvalues --   -0.55023  -0.52966  -0.51929  -0.51703  -0.48803
 Alpha  occ. eigenvalues --   -0.47978  -0.46314  -0.43927  -0.42765  -0.41899
 Alpha  occ. eigenvalues --   -0.35820  -0.32961  -0.28823
 Alpha virt. eigenvalues --    0.01621   0.03873   0.04243   0.04678   0.05058
 Alpha virt. eigenvalues --    0.06292   0.06576   0.08481   0.08786   0.09381
 Alpha virt. eigenvalues --    0.10688   0.11330   0.12215   0.12794   0.13881
 Alpha virt. eigenvalues --    0.14903   0.14972   0.15471   0.15885   0.16605
 Alpha virt. eigenvalues --    0.16796   0.17519   0.17762   0.17865   0.18384
 Alpha virt. eigenvalues --    0.18939   0.19108   0.19939   0.20383   0.20551
 Alpha virt. eigenvalues --    0.21803   0.21912   0.22281   0.22653   0.22980
 Alpha virt. eigenvalues --    0.25011   0.25806   0.25991   0.26178   0.26916
 Alpha virt. eigenvalues --    0.27107   0.28791   0.29477   0.29756   0.29987
 Alpha virt. eigenvalues --    0.31027   0.31739   0.31958   0.32393   0.33848
 Alpha virt. eigenvalues --    0.34228   0.34689   0.35428   0.35560   0.35911
 Alpha virt. eigenvalues --    0.37166   0.38269   0.38419   0.38904   0.40515
 Alpha virt. eigenvalues --    0.41482   0.41775   0.42343   0.43187   0.43900
 Alpha virt. eigenvalues --    0.44841   0.46645   0.47339   0.48133   0.50419
 Alpha virt. eigenvalues --    0.56851   0.58047   0.59777   0.60916   0.61597
 Alpha virt. eigenvalues --    0.62116   0.64591   0.65388   0.65701   0.66585
 Alpha virt. eigenvalues --    0.66606   0.67429   0.68168   0.69203   0.70417
 Alpha virt. eigenvalues --    0.70802   0.71132   0.71892   0.72048   0.73719
 Alpha virt. eigenvalues --    0.75729   0.75747   0.78233   0.81594   0.82117
 Alpha virt. eigenvalues --    0.83014   0.85094   0.86464   0.87583   0.89554
 Alpha virt. eigenvalues --    0.90670   0.90976   0.92545   0.93136   0.95912
 Alpha virt. eigenvalues --    0.96007   0.97421   0.99031   1.00332   1.01131
 Alpha virt. eigenvalues --    1.02088   1.03441   1.04288   1.05558   1.06229
 Alpha virt. eigenvalues --    1.06747   1.09870   1.11860   1.13775   1.13968
 Alpha virt. eigenvalues --    1.14524   1.18723   1.19309   1.20023   1.20942
 Alpha virt. eigenvalues --    1.22453   1.23234   1.23965   1.24753   1.27343
 Alpha virt. eigenvalues --    1.32174   1.34438   1.43571   1.45892   1.47965
 Alpha virt. eigenvalues --    1.55691   1.56282   1.58040   1.59518   1.60645
 Alpha virt. eigenvalues --    1.61429   1.62756   1.63494   1.68629   1.69677
 Alpha virt. eigenvalues --    1.70685   1.70924   1.73718   1.76005   1.76841
 Alpha virt. eigenvalues --    1.78076   1.80423   1.82011   1.85414   1.89139
 Alpha virt. eigenvalues --    1.90017   1.91687   1.93023   1.93308   1.96624
 Alpha virt. eigenvalues --    1.97165   1.99563   2.00502   2.03135   2.04019
 Alpha virt. eigenvalues --    2.04867   2.07430   2.08154   2.08638   2.09713
 Alpha virt. eigenvalues --    2.11401   2.13208   2.15353   2.18833   2.24728
 Alpha virt. eigenvalues --    2.27254   2.27891   2.32167   2.34571   2.37084
 Alpha virt. eigenvalues --    2.39287   2.41678   2.46876   2.50956   2.51947
 Alpha virt. eigenvalues --    2.52684   2.55186   2.55859   2.64994   2.65758
 Alpha virt. eigenvalues --    2.68035   2.71625   2.75324   2.76789   2.79913
 Alpha virt. eigenvalues --    2.81813   2.84313   2.87533   2.88207   2.92703
 Alpha virt. eigenvalues --    2.93470   2.94672   2.99380   3.00958   3.02150
 Alpha virt. eigenvalues --    3.02543   3.04506   3.06453   3.07506   3.08414
 Alpha virt. eigenvalues --    3.11955   3.17683   3.18398   3.20035   3.21667
 Alpha virt. eigenvalues --    3.23247   3.25394   3.28954   3.35098   3.37429
 Alpha virt. eigenvalues --    3.39019   3.48254   3.49848   3.53282   3.55659
 Alpha virt. eigenvalues --    3.64538   3.73554   3.77905   3.79305   3.83519
 Alpha virt. eigenvalues --    3.87891   3.89558   3.99275   4.21542   4.27954
 Alpha virt. eigenvalues --    4.43263   4.44747   4.46023   4.52268   4.57851
 Alpha virt. eigenvalues --    4.62328   4.94312   4.97342   5.13659   5.63539
 Alpha virt. eigenvalues --    6.19737  23.80370  24.05550  24.15262  24.16718
 Alpha virt. eigenvalues --   24.21939  24.25721  24.41174  24.43798  24.51608
 Alpha virt. eigenvalues --   24.53169  50.17786
          Condensed to atoms (all electrons):
               1          2          3          4          5          6
     1  C   19.228732   0.831203  -3.951578  -1.465656  -3.615118  -1.710806
     2  C    0.831203   9.828825  -1.565865  -2.059645  -1.310236  -1.097657
     3  C   -3.951578  -1.565865  12.366172   1.733409   0.114052  -0.897999
     4  C   -1.465656  -2.059645   1.733409   8.377313  -0.052048   0.081420
     5  C   -3.615118  -1.310236   0.114052  -0.052048   8.976091   1.860220
     6  C   -1.710806  -1.097657  -0.897999   0.081420   1.860220  10.433594
     7  C   -4.785254   1.846987   0.685599  -0.892660   0.311274  -1.171341
     8  O    0.422976  -0.115636  -0.023282   0.040333  -0.037214   0.236976
     9  C    1.033528  -0.594463  -0.878791   0.298730  -0.070040   0.282113
    10  H   -0.020468   0.035383   0.046594   0.420507   0.000089  -0.041430
    11  C    0.204829  -0.391715   0.285307  -0.348984   0.339636  -1.151439
    12  H    0.008376  -0.017151  -0.043077  -0.003863   0.451878   0.056155
    13  C   -0.642750   0.191440  -1.336438   0.335588  -0.716722  -0.786183
    14  H   -0.168029   0.005467  -0.174145   0.017861   0.041747   0.427940
    15  H   -0.175747   0.031252  -0.089690   0.011529  -0.019795  -0.005641
    16  H   -0.217991   0.040501   0.258713  -0.013278  -0.007293  -0.170259
    17  H    0.127744  -0.044308   0.016211  -0.095548   0.017557   0.004490
    18  H   -0.005469   0.012565  -0.016424   0.015169  -0.034499  -0.037556
    19  H    0.055010  -0.005381   0.029728  -0.018357  -0.041405  -0.003931
               7          8          9         10         11         12
     1  C   -4.785254   0.422976   1.033528  -0.020468   0.204829   0.008376
     2  C    1.846987  -0.115636  -0.594463   0.035383  -0.391715  -0.017151
     3  C    0.685599  -0.023282  -0.878791   0.046594   0.285307  -0.043077
     4  C   -0.892660   0.040333   0.298730   0.420507  -0.348984  -0.003863
     5  C    0.311274  -0.037214  -0.070040   0.000089   0.339636   0.451878
     6  C   -1.171341   0.236976   0.282113  -0.041430  -1.151439   0.056155
     7  C   11.111589  -0.885711  -0.134420   0.043891   0.150172  -0.003206
     8  O   -0.885711   8.112266   0.012042  -0.000027   0.010664  -0.000250
     9  C   -0.134420   0.012042   6.200900  -0.136067  -0.316792   0.043540
    10  H    0.043891  -0.000027  -0.136067   0.501189   0.034813   0.000267
    11  C    0.150172   0.010664  -0.316792   0.034813   6.436142  -0.143791
    12  H   -0.003206  -0.000250   0.043540   0.000267  -0.143791   0.514459
    13  C   -0.704426   0.266411   0.053795  -0.003784   0.698292   0.001081
    14  H   -0.083475   0.037665  -0.008571   0.001011   0.041472  -0.000785
    15  H    0.676276  -0.044597  -0.078592   0.003172   0.000565  -0.000767
    16  H    0.304381   0.197520   0.006509   0.000348  -0.005274   0.000242
    17  H   -0.187147   0.003117   0.494143  -0.021595   0.000572   0.001422
    18  H   -0.003499   0.000328   0.002577   0.000669   0.469589  -0.020280
    19  H    0.011595  -0.001605  -0.000853  -0.000561  -0.076813   0.000829
              13         14         15         16         17         18
     1  C   -0.642750  -0.168029  -0.175747  -0.217991   0.127744  -0.005469
     2  C    0.191440   0.005467   0.031252   0.040501  -0.044308   0.012565
     3  C   -1.336438  -0.174145  -0.089690   0.258713   0.016211  -0.016424
     4  C    0.335588   0.017861   0.011529  -0.013278  -0.095548   0.015169
     5  C   -0.716722   0.041747  -0.019795  -0.007293   0.017557  -0.034499
     6  C   -0.786183   0.427940  -0.005641  -0.170259   0.004490  -0.037556
     7  C   -0.704426  -0.083475   0.676276   0.304381  -0.187147  -0.003499
     8  O    0.266411   0.037665  -0.044597   0.197520   0.003117   0.000328
     9  C    0.053795  -0.008571  -0.078592   0.006509   0.494143   0.002577
    10  H   -0.003784   0.001011   0.003172   0.000348  -0.021595   0.000669
    11  C    0.698292   0.041472   0.000565  -0.005274   0.000572   0.469589
    12  H    0.001081  -0.000785  -0.000767   0.000242   0.001422  -0.020280
    13  C    8.420578   0.216715   0.007157  -0.145972  -0.000992  -0.055279
    14  H    0.216715   0.654385   0.001807  -0.044207  -0.000643   0.001758
    15  H    0.007157   0.001807   0.502609   0.003012  -0.024833  -0.000024
    16  H   -0.145972  -0.044207   0.003012   0.516571  -0.000394  -0.000443
    17  H   -0.000992  -0.000643  -0.024833  -0.000394   0.517894   0.000000
    18  H   -0.055279   0.001758  -0.000024  -0.000443   0.000000   0.506394
    19  H    0.393904  -0.031112  -0.000010   0.003606   0.000016  -0.014572
              19
     1  C    0.055010
     2  C   -0.005381
     3  C    0.029728
     4  C   -0.018357
     5  C   -0.041405
     6  C   -0.003931
     7  C    0.011595
     8  O   -0.001605
     9  C   -0.000853
    10  H   -0.000561
    11  C   -0.076813
    12  H    0.000829
    13  C    0.393904
    14  H   -0.031112
    15  H   -0.000010
    16  H    0.003606
    17  H    0.000016
    18  H   -0.014572
    19  H    0.507491
 Mulliken charges:
               1
     1  C    0.846467
     2  C    0.378433
     3  C   -0.558497
     4  C   -0.381820
     5  C   -0.208172
     6  C   -0.308665
     7  C   -0.290626
     8  O   -0.231976
     9  C   -0.209286
    10  H    0.136000
    11  C   -0.237243
    12  H    0.154920
    13  C   -0.192414
    14  H    0.063140
    15  H    0.202319
    16  H    0.273710
    17  H    0.192293
    18  H    0.178994
    19  H    0.192422
 Sum of Mulliken charges =  -0.00000
 Mulliken charges with hydrogens summed into heavy atoms:
               1
     1  C    0.846467
     2  C    0.378433
     3  C   -0.558497
     4  C   -0.245820
     5  C   -0.053252
     6  C   -0.245525
     7  C   -0.088306
     8  O    0.041734
     9  C   -0.016993
    11  C   -0.058248
    13  C    0.000008
 Electronic spatial extent (au):  <R**2>=           1501.2465
 Charge=             -0.0000 electrons
 Dipole moment (field-independent basis, Debye):
    X=             -1.5349    Y=             -0.4770    Z=              0.3167  Tot=              1.6383
 Quadrupole moment (field-independent basis, Debye-Ang):
   XX=            -57.6721   YY=            -56.4626   ZZ=            -67.7822
   XY=             -4.6393   XZ=              0.2811   YZ=              1.0085
 Traceless Quadrupole moment (field-independent basis, Debye-Ang):
   XX=              2.9669   YY=              4.1763   ZZ=             -7.1432
   XY=             -4.6393   XZ=              0.2811   YZ=              1.0085
 Octapole moment (field-independent basis, Debye-Ang**2):
  XXX=             -5.4970  YYY=              6.4328  ZZZ=              0.1569  XYY=            -10.1123
  XXY=            -10.5578  XXZ=             -0.0281  XZZ=              3.0061  YZZ=              4.7672
  YYZ=              2.9689  XYZ=              0.8869
 Hexadecapole moment (field-independent basis, Debye-Ang**3):
 XXXX=          -1096.7458 YYYY=           -642.7471 ZZZZ=            -77.1286 XXXY=            -22.6688
 XXXZ=             -0.3863 YYYX=            -17.2848 YYYZ=              8.4264 ZZZX=              0.2189
 ZZZY=              0.7419 XXYY=           -321.0707 XXZZ=           -236.6818 YYZZ=           -141.8498
 XXYZ=              0.2952 YYXZ=              2.8837 ZZXY=              6.5572
 N-N= 5.634728655317D+02 E-N=-2.201249501229D+03  KE= 4.616684694978D+02
 No NMR shielding tensors so no spin-rotation constants.
 Leave Link  601 at Mon Nov 21 14:55:40 2022, MaxMem= 16106127360 cpu:               4.1 elap:               0.2
 (Enter /opt/ap/G16/B01/g16/l9999.exe)
 1\1\GINC-N12\SP\RwB97XD\6-311++G(d,p)\C10H8O1\ROOT\21-Nov-2022\0\\#P w
 B97XD/6-311++G(d,p) scf=maxcycle=512\\_conf039.gjf nmol_natom 1_19\\0,
 1\C\C,1,1.40879539\C,1,1.42289824,2,117.24956717\C,2,1.41887971,1,119.
 07594714,3,0.16510261,0\C,2,1.42227783,1,117.46262303,3,-179.44443577,
 0\C,1,1.42440336,2,119.00293897,4,179.73740031,0\C,3,1.35510367,1,122.
 33979448,2,-0.36120568,0\O,3,1.37615658,1,115.04370777,2,-179.5931286,
 0\C,4,1.34577659,2,121.30210156,1,0.17277764,0\H,4,0.93023405,2,119.33
 469462,1,-179.75965297,0\C,5,1.34486794,2,122.06073707,1,-0.32265162,0
 \H,5,0.92957893,2,118.96449269,1,179.64671542,0\C,6,1.35980576,1,121.1
 112438,2,0.11625163,0\H,6,0.92999796,1,119.43671105,2,-179.87270235,0\
 H,7,0.93052813,3,120.28038366,1,-179.76477098,0\H,8,0.81991994,3,109.4
 8785721,1,15.,0\H,9,0.93027331,4,119.71917791,2,179.60144151,0\H,11,0.
 92987565,5,119.70372857,2,-179.69197286,0\H,13,0.93032717,6,120.145246
 92,1,179.85241379,0\\Version=ES64L-G16RevB.01\State=1-A\HF=-460.888680
 8\RMSD=3.209e-09\Dipole=-0.5506171,0.1202095,0.3127326\Quadrupole=3.68
 37155,-5.3028042,1.6190887,0.0768524,3.3271912,-0.791689\PG=C01 [X(C10
 H8O1)]\\@


 IN THE FIGHT BETWEEN YOU AND THE WORLD, BACK THE WORLD

                                        -- FRANZ KAFKA
 Job cpu time:       0 days  0 hours 14 minutes 24.5 seconds.
 Elapsed time:       0 days  0 hours  0 minutes 27.5 seconds.
 File lengths (MBytes):  RWF=     51 Int=      0 D2E=      0 Chk=      6 Scr=      1
 Normal termination of Gaussian 16 at Mon Nov 21 14:55:40 2022.
