 Entering Gaussian System, Link 0=g16
 Input=_conf034.gjf
 Output=_conf034.log
 Initial command:
 /opt/ap/G16/B01/g16/l1.exe "/tmp2/scr/Gau-680.inp" -scrdir="/tmp2/scr/"
 Entering Link 1 = /opt/ap/G16/B01/g16/l1.exe PID=       681.
  
 Copyright (c) 1988-2017, Gaussian, Inc.  All Rights Reserved.
  
 This is part of the Gaussian(R) 16 program.  It is based on
 the Gaussian(R) 09 system (copyright 2009, Gaussian, Inc.),
 the Gaussian(R) 03 system (copyright 2003, Gaussian, Inc.),
 the Gaussian(R) 98 system (copyright 1998, Gaussian, Inc.),
 the Gaussian(R) 94 system (copyright 1995, Gaussian, Inc.),
 the Gaussian 92(TM) system (copyright 1992, Gaussian, Inc.),
 the Gaussian 90(TM) system (copyright 1990, Gaussian, Inc.),
 the Gaussian 88(TM) system (copyright 1988, Gaussian, Inc.),
 the Gaussian 86(TM) system (copyright 1986, Carnegie Mellon
 University), and the Gaussian 82(TM) system (copyright 1983,
 Carnegie Mellon University). Gaussian is a federally registered
 trademark of Gaussian, Inc.
  
 This software contains proprietary and confidential information,
 including trade secrets, belonging to Gaussian, Inc.
  
 This software is provided under written license and may be
 used, copied, transmitted, or stored only in accord with that
 written license.
  
 The following legend is applicable only to US Government
 contracts under FAR:
  
                    RESTRICTED RIGHTS LEGEND
  
 Use, reproduction and disclosure by the US Government is
 subject to restrictions as set forth in subparagraphs (a)
 and (c) of the Commercial Computer Software - Restricted
 Rights clause in FAR 52.227-19.
  
 Gaussian, Inc.
 340 Quinnipiac St., Bldg. 40, Wallingford CT 06492
  
  
 ---------------------------------------------------------------
 Warning -- This program may not be used in any manner that
 competes with the business of Gaussian, Inc. or will provide
 assistance to any competitor of Gaussian, Inc.  The licensee
 of this program is prohibited from giving any competitor of
 Gaussian, Inc. access to this program.  By using this program,
 the user acknowledges that Gaussian, Inc. is engaged in the
 business of creating and licensing software in the field of
 computational chemistry and represents and warrants to the
 licensee that it is not a competitor of Gaussian, Inc. and that
 it will not use this program in any manner prohibited above.
 ---------------------------------------------------------------
  

 Cite this work as:
 Gaussian 16, Revision B.01,
 M. J. Frisch, G. W. Trucks, H. B. Schlegel, G. E. Scuseria, 
 M. A. Robb, J. R. Cheeseman, G. Scalmani, V. Barone, 
 G. A. Petersson, H. Nakatsuji, X. Li, M. Caricato, A. V. Marenich, 
 J. Bloino, B. G. Janesko, R. Gomperts, B. Mennucci, H. P. Hratchian, 
 J. V. Ortiz, A. F. Izmaylov, J. L. Sonnenberg, D. Williams-Young, 
 F. Ding, F. Lipparini, F. Egidi, J. Goings, B. Peng, A. Petrone, 
 T. Henderson, D. Ranasinghe, V. G. Zakrzewski, J. Gao, N. Rega, 
 G. Zheng, W. Liang, M. Hada, M. Ehara, K. Toyota, R. Fukuda, 
 J. Hasegawa, M. Ishida, T. Nakajima, Y. Honda, O. Kitao, H. Nakai, 
 T. Vreven, K. Throssell, J. A. Montgomery, Jr., J. E. Peralta, 
 F. Ogliaro, M. J. Bearpark, J. J. Heyd, E. N. Brothers, K. N. Kudin, 
 V. N. Staroverov, T. A. Keith, R. Kobayashi, J. Normand, 
 K. Raghavachari, A. P. Rendell, J. C. Burant, S. S. Iyengar, 
 J. Tomasi, M. Cossi, J. M. Millam, M. Klene, C. Adamo, R. Cammi, 
 J. W. Ochterski, R. L. Martin, K. Morokuma, O. Farkas, 
 J. B. Foresman, and D. J. Fox, Gaussian, Inc., Wallingford CT, 2016.
 
 ******************************************
 Gaussian 16:  ES64L-G16RevB.01 20-Dec-2017
                21-Nov-2022 
 ******************************************
 %nprocshared=32
 Will use up to   32 processors via shared memory.
 %mem=120GB
 %chk=_conf034.chk
 ----------------------------------------
 #P wB97XD/6-311++G(d,p) scf=maxcycle=512
 ----------------------------------------
 1/38=1,172=1/1;
 2/12=2,17=6,18=5,40=1/2;
 3/5=4,6=6,7=1111,11=2,25=1,30=1,74=-58/1,2,3;
 4//1;
 5/5=2,7=512,38=5/2;
 6/7=2,8=2,9=2,10=2,28=1/1;
 99/5=1,9=1/99;
 Leave Link    1 at Mon Nov 21 14:54:58 2022, MaxMem= 16106127360 cpu:               2.0 elap:               0.1
 (Enter /opt/ap/G16/B01/g16/l101.exe)
 ----------------------------
 _conf034.gjf nmol_natom 1_19
 ----------------------------
 Symbolic Z-matrix:
 Charge =  0 Multiplicity = 1
 C
 C                    1     1.4088 
 C                    1     1.4229   2     117.24957 
 C                    2     1.41888  1     119.07595  3     0.1651   0
 C                    2     1.42228  1     117.46262  3    -179.44444  0
 C                    1     1.4244   2     119.00294  4     179.7374  0
 C                    3     1.3551   1     122.33979  2    -0.36121  0
 O                    3     1.37616  1     115.04371  2    -179.59313  0
 C                    4     1.34578  2     121.3021  1     0.17278  0
 H                    4     0.93023  2     119.33469  1    -179.75965  0
 C                    5     1.34487  2     122.06074  1    -0.32265  0
 H                    5     0.92958  2     118.96449  1     179.64672  0
 C                    6     1.35981  1     121.11124  2     0.11625  0
 H                    6     0.93     1     119.43671  2    -179.8727  0
 H                    7     0.93053  3     120.28038  1    -179.76477  0
 H                    8     0.81992  3     109.48786  1    -10.      0
 H                    9     0.93027  4     119.71918  2     179.60144  0
 H                    11    0.92988  5     119.70373  2    -179.69197  0
 H                    13    0.93033  6     120.14525  1     179.85241  0
 
 ITRead=  0  0  0  0  0  0  0  0  0  0  0  0  0  0  0  0  0  0  0
 MicOpt= -1 -1 -1 -1 -1 -1 -1 -1 -1 -1 -1 -1 -1 -1 -1 -1 -1 -1 -1
 NAtoms=     19 NQM=       19 NQMF=       0 NMMI=      0 NMMIF=      0
                NMic=       0 NMicF=      0.
                    Isotopes and Nuclear Properties:
 (Nuclear quadrupole moments (NQMom) in fm**2, nuclear magnetic moments (NMagM)
  in nuclear magnetons)

  Atom         1           2           3           4           5           6           7           8           9          10
 IAtWgt=          12          12          12          12          12          12          12          16          12           1
 AtmWgt=  12.0000000  12.0000000  12.0000000  12.0000000  12.0000000  12.0000000  12.0000000  15.9949146  12.0000000   1.0078250
 NucSpn=           0           0           0           0           0           0           0           0           0           1
 AtZEff=  -0.0000000  -0.0000000  -0.0000000  -0.0000000  -0.0000000  -0.0000000  -0.0000000  -0.0000000  -0.0000000  -0.0000000
 NQMom=    0.0000000   0.0000000   0.0000000   0.0000000   0.0000000   0.0000000   0.0000000   0.0000000   0.0000000   0.0000000
 NMagM=    0.0000000   0.0000000   0.0000000   0.0000000   0.0000000   0.0000000   0.0000000   0.0000000   0.0000000   2.7928460
 AtZNuc=   6.0000000   6.0000000   6.0000000   6.0000000   6.0000000   6.0000000   6.0000000   8.0000000   6.0000000   1.0000000

  Atom        11          12          13          14          15          16          17          18          19
 IAtWgt=          12           1          12           1           1           1           1           1           1
 AtmWgt=  12.0000000   1.0078250  12.0000000   1.0078250   1.0078250   1.0078250   1.0078250   1.0078250   1.0078250
 NucSpn=           0           1           0           1           1           1           1           1           1
 AtZEff=  -0.0000000  -0.0000000  -0.0000000  -0.0000000  -0.0000000  -0.0000000  -0.0000000  -0.0000000  -0.0000000
 NQMom=    0.0000000   0.0000000   0.0000000   0.0000000   0.0000000   0.0000000   0.0000000   0.0000000   0.0000000
 NMagM=    0.0000000   2.7928460   0.0000000   2.7928460   2.7928460   2.7928460   2.7928460   2.7928460   2.7928460
 AtZNuc=   6.0000000   1.0000000   6.0000000   1.0000000   1.0000000   1.0000000   1.0000000   1.0000000   1.0000000
 Leave Link  101 at Mon Nov 21 14:54:58 2022, MaxMem= 16106127360 cpu:               5.3 elap:               0.2
 (Enter /opt/ap/G16/B01/g16/l202.exe)
                          Input orientation:                          
 ---------------------------------------------------------------------
 Center     Atomic      Atomic             Coordinates (Angstroms)
 Number     Number       Type             X           Y           Z
 ---------------------------------------------------------------------
      1          6           0        0.000000    0.000000    0.000000
      2          6           0        0.000000    0.000000    1.408795
      3          6           0        1.264986    0.000000   -0.651498
      4          6           0        1.240062    0.003573    2.098326
      5          6           0       -1.261945   -0.012237    2.064707
      6          6           0       -1.245741   -0.009299   -0.690628
      7          6           0        2.433644    0.007218    0.034427
      8          8           0        1.212032    0.008854   -2.026607
      9          6           0        2.409936    0.010412    1.433147
     10          1           0        1.244276    0.000184    3.028545
     11          6           0       -2.421000   -0.017057    1.382624
     12          1           0       -1.286266   -0.017488    2.993953
     13          6           0       -2.424704   -0.015738   -0.013076
     14          1           0       -1.252769   -0.011151   -1.620598
     15          1           0        3.245045    0.010306   -0.421097
     16          1           0        0.440432   -0.121316   -2.271471
     17          1           0        3.210137    0.018260    1.907515
     18          1           0       -3.227740   -0.020753    1.845035
     19          1           0       -3.230632   -0.019714   -0.477804
 ---------------------------------------------------------------------
                    Distance matrix (angstroms):
                    1          2          3          4          5
     1  C    0.000000
     2  C    1.408795   0.000000
     3  C    1.422898   2.417643   0.000000
     4  C    2.437363   1.418880   2.749940   0.000000
     5  C    2.419849   1.422278   3.709892   2.502283   0.000000
     6  C    1.424403   2.441216   2.511049   3.735994   2.755385
     7  C    2.433898   2.794917   1.355104   2.384184   4.216609
     8  O    2.361406   3.642951   1.376157   4.125032   4.781198
     9  C    2.803892   2.410081   2.378396   1.345777   3.725867
    10  H    3.274188   2.042501   3.680101   0.930234   2.685197
    11  C    2.788042   2.421201   4.210040   3.730420   1.344868
    12  H    3.258610   2.041448   4.449551   2.680471   0.929579
    13  C    2.424790   2.810899   3.744548   4.229527   2.381009
    14  H    2.048388   3.278228   2.697845   4.477144   3.685317
    15  H    3.272269   3.725443   1.993445   3.219859   5.147104
    16  H    2.316955   3.708512   1.821790   4.444113   4.659660
    17  H    3.734157   3.248697   3.214420   1.979348   4.474947
    18  H    3.717915   3.257153   5.139815   4.475043   1.978050
    19  H    3.265834   3.741207   4.499015   5.159854   3.215610
                    6          7          8          9         10
     6  C    0.000000
     7  C    3.750180   0.000000
     8  O    2.797466   2.395871   0.000000
     9  C    4.227858   1.398925   3.661267   0.000000
    10  H    4.475771   3.221706   5.055262   1.975895   0.000000
    11  C    2.383205   5.038431   4.982213   4.831278   4.017910
    12  H    3.684813   4.753644   5.607870   4.012331   2.530840
    13  C    1.359806   4.858634   4.157013   5.046383   4.765829
    14  H    0.929998   4.040926   2.498097   4.768777   5.277300
    15  H    4.498910   0.930528   2.590522   2.033624   3.987882
    16  H    2.314043   3.050668   0.819920   4.197677   5.362005
    17  H    5.158096   2.027689   4.412463   0.930273   2.263105
    18  H    3.218391   5.943934   5.890846   5.652788   4.626021
    19  H    1.996295   5.687453   4.704984   5.955556   5.685040
                   11         12         13         14         15
    11  C    0.000000
    12  H    1.970788   0.000000
    13  C    1.395705   3.215317   0.000000
    14  H    3.222443   4.614677   1.989366   0.000000
    15  H    5.946277   5.674162   5.684470   4.655061   0.000000
    16  H    4.642313   5.542288   3.649726   1.817334   3.362597
    17  H    5.655657   4.625934   5.953256   5.689110   2.328887
    18  H    0.929876   2.255958   2.024221   3.988887   6.858080
    19  H    2.028966   3.979153   0.930327   2.284293   6.475995
                   16         17         18         19
    16  H    0.000000
    17  H    5.015444   0.000000
    18  H    5.514638   6.438299   0.000000
    19  H    4.087087   6.868384   2.322841   0.000000
 Stoichiometry    C10H8O
 Framework group  C1[X(C10H8O)]
 Deg. of freedom    51
 Full point group                 C1      NOp   1
 Largest Abelian subgroup         C1      NOp   1
 Largest concise Abelian subgroup C1      NOp   1
                         Standard orientation:                         
 ---------------------------------------------------------------------
 Center     Atomic      Atomic             Coordinates (Angstroms)
 Number     Number       Type             X           Y           Z
 ---------------------------------------------------------------------
      1          6           0        0.025915    0.425426   -0.005031
      2          6           0        0.325871   -0.951065   -0.002993
      3          6           0       -1.348765    0.792661    0.000871
      4          6           0       -0.738946   -1.888811    0.001141
      5          6           0        1.698580   -1.323228    0.003364
      6          6           0        1.096075    1.365468   -0.003472
      7          6           0       -2.344601   -0.126369    0.000969
      8          8           0       -1.589854    2.147489   -0.010259
      9          6           0       -2.023642   -1.487976   -0.000330
     10          1           0       -0.544987   -2.798587    0.005899
     11          6           0        2.685840   -0.410002    0.000926
     12          1           0        1.920222   -2.225974    0.009828
     13          6           0        2.392284    0.954478   -0.002432
     14          1           0        0.904945    2.275613   -0.003003
     15          1           0       -3.234391    0.145949    0.001612
     16          1           0       -0.887444    2.551351    0.115380
     17          1           0       -2.704522   -2.121855   -0.003162
     18          1           0        3.572546   -0.690041    0.000925
     19          1           0        3.080794    1.580147   -0.003490
 ---------------------------------------------------------------------
 Rotational constants (GHZ):           2.0027297           1.1602906           0.7346948
 Leave Link  202 at Mon Nov 21 14:54:58 2022, MaxMem= 16106127360 cpu:               0.3 elap:               0.0
 (Enter /opt/ap/G16/B01/g16/l301.exe)
 Standard basis: 6-311++G(d,p) (5D, 7F)
 Ernie: Thresh=  0.10000D-02 Tol=  0.10000D-05 Strict=F.
 There are   309 symmetry adapted cartesian basis functions of A   symmetry.
 There are   298 symmetry adapted basis functions of A   symmetry.
   298 basis functions,   468 primitive gaussians,   309 cartesian basis functions
    38 alpha electrons       38 beta electrons
       nuclear repulsion energy       563.5072585867 Hartrees.
 IExCor= 4639 DFT=T Ex+Corr=wB97XD ExCW=0 ScaHFX=  1.000000
 ScaDFX=  1.000000  1.000000  1.000000  1.000000 ScalE2=  1.000000  1.000000
 IRadAn=      5 IRanWt=     -1 IRanGd=            0 ICorTp=0 IEmpDi=121
 HFx  wShort=  0.000000 wLong=  0.200000 cFull=  0.222036 cShort=  0.000000 cLong=  0.777964
 DFx  wShort=  0.000000 wLong=  0.200000 cFull=  0.000000 cShort=  0.000000 cLong=  1.000000
 NAtoms=   19 NActive=   19 NUniq=   19 SFac= 1.00D+00 NAtFMM=   60 NAOKFM=F Big=F
 Integral buffers will be    131072 words long.
 Raffenetti 2 integral format.
 Two-electron integral symmetry is turned on.
 R6Disp:  Grimme-D2 Dispersion energy=       -0.0101950057 Hartrees.
 Nuclear repulsion after empirical dispersion term =      563.4970635810 Hartrees.
 Leave Link  301 at Mon Nov 21 14:54:58 2022, MaxMem= 16106127360 cpu:               1.2 elap:               0.0
 (Enter /opt/ap/G16/B01/g16/l302.exe)
 NPDir=0 NMtPBC=     1 NCelOv=     1 NCel=       1 NClECP=     1 NCelD=      1
         NCelK=      1 NCelE2=     1 NClLst=     1 CellRange=     0.0.
 One-electron integrals computed using PRISM.
 One-electron integral symmetry used in STVInt
 NBasis=   298 RedAO= T EigKep=  1.93D-06  NBF=   298
 NBsUse=   295 1.00D-06 EigRej=  8.82D-07 NBFU=   295
 Precomputing XC quadrature grid using
 IXCGrd= 4 IRadAn=           5 IRanWt=          -1 IRanGd=           0 AccXCQ= 0.00D+00.
 Generated NRdTot=       0 NPtTot=           0 NUsed=           0 NTot=          32
 NSgBfM=   309   309   309   309   309 MxSgAt=    19 MxSgA2=    19.
 Leave Link  302 at Mon Nov 21 14:54:58 2022, MaxMem= 16106127360 cpu:               6.7 elap:               0.2
 (Enter /opt/ap/G16/B01/g16/l303.exe)
 DipDrv:  MaxL=1.
 Leave Link  303 at Mon Nov 21 14:54:58 2022, MaxMem= 16106127360 cpu:               1.4 elap:               0.0
 (Enter /opt/ap/G16/B01/g16/l401.exe)
 ExpMin= 3.60D-02 ExpMax= 8.59D+03 ExpMxC= 1.30D+03 IAcc=3 IRadAn=         5 AccDes= 0.00D+00
 Harris functional with IExCor= 4639 and IRadAn=       5 diagonalized for initial guess.
 HarFok:  IExCor= 4639 AccDes= 0.00D+00 IRadAn=         5 IDoV= 1 UseB2=F ITyADJ=14
 ICtDFT=  3500011 ScaDFX=  1.000000  1.000000  1.000000  1.000000
 FoFCou: FMM=F IPFlag=           0 FMFlag=      100000 FMFlg1=           0
         NFxFlg=           0 DoJE=T BraDBF=F KetDBF=T FulRan=T
         wScrn=  0.000000 ICntrl=       500 IOpCl=  0 I1Cent=   200000004 NGrid=           0
         NMat0=    1 NMatS0=      1 NMatT0=    0 NMatD0=    1 NMtDS0=    0 NMtDT0=    0
 Petite list used in FoFCou.
 Harris En= -440.613621892631    
 JPrj=0 DoOrth=F DoCkMO=F.
 Leave Link  401 at Mon Nov 21 14:54:59 2022, MaxMem= 16106127360 cpu:              16.3 elap:               0.5
 (Enter /opt/ap/G16/B01/g16/l502.exe)
 Integral symmetry usage will be decided dynamically.
 Closed shell SCF:
 Using DIIS extrapolation, IDIIS=  1040.
 NGot= 16106127360 LenX= 16105923535 LenY= 16105827613
 Requested convergence on RMS density matrix=1.00D-08 within 512 cycles.
 Requested convergence on MAX density matrix=1.00D-06.
 Requested convergence on             energy=1.00D-06.
 No special actions if energy rises.
 Fock matrices will be formed incrementally for  20 cycles.

 Cycle   1  Pass 1  IDiag  1:
 FoFJK:  IHMeth= 1 ICntrl=       0 DoSepK=T KAlg= 0 I1Cent=           0 FoldK=F
 IRaf=         1 NMat=       1 IRICut=       1 DoRegI=T DoRafI=F ISym2E= 0 IDoP0=0 IntGTp=1.
 FoFCou: FMM=F IPFlag=           0 FMFlag=      100000 FMFlg1=           0
         NFxFlg=           0 DoJE=T BraDBF=F KetDBF=F FulRan=T
         wScrn=  0.000000 ICntrl=       500 IOpCl=  0 I1Cent=           0 NGrid=           0
         NMat0=    1 NMatS0=      1 NMatT0=    0 NMatD0=    1 NMtDS0=    0 NMtDT0=    0
 Symmetry not used in FoFCou.
 E= -460.744742034271    
 DIIS: error= 5.97D-02 at cycle   1 NSaved=   1.
 NSaved= 1 IEnMin= 1 EnMin= -460.744742034271     IErMin= 1 ErrMin= 5.97D-02
 ErrMax= 5.97D-02  0.00D+00 EMaxC= 1.00D-01 BMatC= 9.63D-01 BMatP= 9.63D-01
 IDIUse=3 WtCom= 4.03D-01 WtEn= 5.97D-01
 Coeff-Com:  0.100D+01
 Coeff-En:   0.100D+01
 Coeff:      0.100D+01
 Gap=     0.333 Goal=   None    Shift=    0.000
 GapD=    0.333 DampG=1.000 DampE=0.500 DampFc=0.5000 IDamp=-1.
 Damping current iteration by 5.00D-01
 RMSDP=1.48D-02 MaxDP=1.24D+00              OVMax= 1.60D-01

 Cycle   2  Pass 1  IDiag  1:
 RMSU=  4.65D-03    CP:  9.23D-01
 E= -460.814483975722     Delta-E=       -0.069741941451 Rises=F Damp=T
 DIIS: error= 3.00D-02 at cycle   2 NSaved=   2.
 NSaved= 2 IEnMin= 2 EnMin= -460.814483975722     IErMin= 2 ErrMin= 3.00D-02
 ErrMax= 3.00D-02  0.00D+00 EMaxC= 1.00D-01 BMatC= 2.08D-01 BMatP= 9.63D-01
 IDIUse=3 WtCom= 7.00D-01 WtEn= 3.00D-01
 Coeff-Com: -0.690D+00 0.169D+01
 Coeff-En:   0.000D+00 0.100D+01
 Coeff:     -0.483D+00 0.148D+01
 Gap=     0.325 Goal=   None    Shift=    0.000
 RMSDP=1.51D-02 MaxDP=1.78D+00 DE=-6.97D-02 OVMax= 1.56D-01

 Cycle   3  Pass 1  IDiag  1:
 RMSU=  4.45D-03    CP:  7.29D-01  1.22D+00
 E= -460.859926454909     Delta-E=       -0.045442479188 Rises=F Damp=F
 DIIS: error= 1.34D-02 at cycle   3 NSaved=   3.
 NSaved= 3 IEnMin= 3 EnMin= -460.859926454909     IErMin= 3 ErrMin= 1.34D-02
 ErrMax= 1.34D-02  0.00D+00 EMaxC= 1.00D-01 BMatC= 3.14D-02 BMatP= 2.08D-01
 IDIUse=3 WtCom= 8.66D-01 WtEn= 1.34D-01
 Coeff-Com: -0.356D+00 0.758D+00 0.598D+00
 Coeff-En:   0.000D+00 0.000D+00 0.100D+01
 Coeff:     -0.308D+00 0.656D+00 0.652D+00
 Gap=     0.312 Goal=   None    Shift=    0.000
 RMSDP=2.43D-03 MaxDP=1.16D-01 DE=-4.54D-02 OVMax= 7.11D-02

 Cycle   4  Pass 1  IDiag  1:
 RMSU=  1.72D-03    CP:  7.23D-01  1.38D+00  6.69D-01
 E= -460.887386873254     Delta-E=       -0.027460418345 Rises=F Damp=F
 DIIS: error= 2.20D-03 at cycle   4 NSaved=   4.
 NSaved= 4 IEnMin= 4 EnMin= -460.887386873254     IErMin= 4 ErrMin= 2.20D-03
 ErrMax= 2.20D-03  0.00D+00 EMaxC= 1.00D-01 BMatC= 1.38D-03 BMatP= 3.14D-02
 IDIUse=3 WtCom= 9.78D-01 WtEn= 2.20D-02
 Coeff-Com: -0.117D+00 0.250D+00 0.299D+00 0.567D+00
 Coeff-En:   0.000D+00 0.000D+00 0.000D+00 0.100D+01
 Coeff:     -0.114D+00 0.245D+00 0.293D+00 0.577D+00
 Gap=     0.304 Goal=   None    Shift=    0.000
 RMSDP=4.48D-04 MaxDP=1.52D-02 DE=-2.75D-02 OVMax= 1.03D-02

 Cycle   5  Pass 1  IDiag  1:
 RMSU=  3.16D-04    CP:  7.21D-01  1.39D+00  7.22D-01  9.29D-01
 E= -460.888637382708     Delta-E=       -0.001250509454 Rises=F Damp=F
 DIIS: error= 3.88D-04 at cycle   5 NSaved=   5.
 NSaved= 5 IEnMin= 5 EnMin= -460.888637382708     IErMin= 5 ErrMin= 3.88D-04
 ErrMax= 3.88D-04  0.00D+00 EMaxC= 1.00D-01 BMatC= 1.75D-05 BMatP= 1.38D-03
 IDIUse=3 WtCom= 9.96D-01 WtEn= 3.88D-03
 Coeff-Com:  0.127D-01-0.268D-01 0.302D-02 0.128D+00 0.883D+00
 Coeff-En:   0.000D+00 0.000D+00 0.000D+00 0.000D+00 0.100D+01
 Coeff:      0.126D-01-0.267D-01 0.301D-02 0.127D+00 0.884D+00
 Gap=     0.304 Goal=   None    Shift=    0.000
 RMSDP=1.49D-04 MaxDP=7.92D-03 DE=-1.25D-03 OVMax= 3.44D-03

 Cycle   6  Pass 1  IDiag  1:
 RMSU=  1.32D-04    CP:  7.21D-01  1.39D+00  7.37D-01  9.31D-01  9.51D-01
 E= -460.888664433820     Delta-E=       -0.000027051112 Rises=F Damp=F
 DIIS: error= 2.23D-04 at cycle   6 NSaved=   6.
 NSaved= 6 IEnMin= 6 EnMin= -460.888664433820     IErMin= 6 ErrMin= 2.23D-04
 ErrMax= 2.23D-04  0.00D+00 EMaxC= 1.00D-01 BMatC= 4.47D-06 BMatP= 1.75D-05
 IDIUse=3 WtCom= 9.98D-01 WtEn= 2.23D-03
 Coeff-Com:  0.171D-01-0.365D-01-0.271D-01-0.624D-02 0.368D+00 0.685D+00
 Coeff-En:   0.000D+00 0.000D+00 0.000D+00 0.000D+00 0.000D+00 0.100D+01
 Coeff:      0.170D-01-0.364D-01-0.270D-01-0.623D-02 0.367D+00 0.686D+00
 Gap=     0.304 Goal=   None    Shift=    0.000
 RMSDP=1.27D-04 MaxDP=8.26D-03 DE=-2.71D-05 OVMax= 1.08D-03

 Cycle   7  Pass 1  IDiag  1:
 RMSU=  4.70D-05    CP:  7.20D-01  1.39D+00  7.38D-01  9.68D-01  1.10D+00
                    CP:  9.26D-01
 E= -460.888670842629     Delta-E=       -0.000006408809 Rises=F Damp=F
 DIIS: error= 8.21D-05 at cycle   7 NSaved=   7.
 NSaved= 7 IEnMin= 7 EnMin= -460.888670842629     IErMin= 7 ErrMin= 8.21D-05
 ErrMax= 8.21D-05  0.00D+00 EMaxC= 1.00D-01 BMatC= 3.39D-07 BMatP= 4.47D-06
 IDIUse=1 WtCom= 1.00D+00 WtEn= 0.00D+00
 Coeff-Com:  0.120D-02-0.254D-02-0.304D-02-0.151D-01-0.600D-01 0.941D-01
 Coeff-Com:  0.985D+00
 Coeff:      0.120D-02-0.254D-02-0.304D-02-0.151D-01-0.600D-01 0.941D-01
 Coeff:      0.985D+00
 Gap=     0.304 Goal=   None    Shift=    0.000
 RMSDP=2.02D-05 MaxDP=1.94D-03 DE=-6.41D-06 OVMax= 8.19D-04

 Cycle   8  Pass 1  IDiag  1:
 RMSU=  1.26D-05    CP:  7.20D-01  1.39D+00  7.38D-01  9.68D-01  1.11D+00
                    CP:  9.85D-01  1.15D+00
 E= -460.888671908180     Delta-E=       -0.000001065552 Rises=F Damp=F
 DIIS: error= 3.17D-05 at cycle   8 NSaved=   8.
 NSaved= 8 IEnMin= 8 EnMin= -460.888671908180     IErMin= 8 ErrMin= 3.17D-05
 ErrMax= 3.17D-05  0.00D+00 EMaxC= 1.00D-01 BMatC= 1.05D-07 BMatP= 3.39D-07
 IDIUse=1 WtCom= 1.00D+00 WtEn= 0.00D+00
 Coeff-Com: -0.218D-02 0.470D-02 0.356D-02-0.408D-02-0.848D-01-0.771D-01
 Coeff-Com:  0.424D+00 0.736D+00
 Coeff:     -0.218D-02 0.470D-02 0.356D-02-0.408D-02-0.848D-01-0.771D-01
 Coeff:      0.424D+00 0.736D+00
 Gap=     0.304 Goal=   None    Shift=    0.000
 RMSDP=1.25D-05 MaxDP=7.65D-04 DE=-1.07D-06 OVMax= 2.63D-04

 Cycle   9  Pass 1  IDiag  1:
 RMSU=  4.25D-06    CP:  7.20D-01  1.39D+00  7.39D-01  9.66D-01  1.11D+00
                    CP:  1.03D+00  1.23D+00  1.03D+00
 E= -460.888672122236     Delta-E=       -0.000000214055 Rises=F Damp=F
 DIIS: error= 1.28D-05 at cycle   9 NSaved=   9.
 NSaved= 9 IEnMin= 9 EnMin= -460.888672122236     IErMin= 9 ErrMin= 1.28D-05
 ErrMax= 1.28D-05  0.00D+00 EMaxC= 1.00D-01 BMatC= 7.42D-09 BMatP= 1.05D-07
 IDIUse=1 WtCom= 1.00D+00 WtEn= 0.00D+00
 Coeff-Com: -0.657D-03 0.141D-02 0.138D-02 0.157D-02-0.115D-01-0.354D-01
 Coeff-Com: -0.520D-01 0.114D+00 0.982D+00
 Coeff:     -0.657D-03 0.141D-02 0.138D-02 0.157D-02-0.115D-01-0.354D-01
 Coeff:     -0.520D-01 0.114D+00 0.982D+00
 Gap=     0.304 Goal=   None    Shift=    0.000
 RMSDP=4.89D-06 MaxDP=4.33D-04 DE=-2.14D-07 OVMax= 1.52D-04

 Cycle  10  Pass 1  IDiag  1:
 RMSU=  1.72D-06    CP:  7.20D-01  1.39D+00  7.39D-01  9.65D-01  1.11D+00
                    CP:  1.04D+00  1.24D+00  1.20D+00  1.24D+00
 E= -460.888672155997     Delta-E=       -0.000000033761 Rises=F Damp=F
 DIIS: error= 6.33D-06 at cycle  10 NSaved=  10.
 NSaved=10 IEnMin=10 EnMin= -460.888672155997     IErMin=10 ErrMin= 6.33D-06
 ErrMax= 6.33D-06  0.00D+00 EMaxC= 1.00D-01 BMatC= 1.19D-09 BMatP= 7.42D-09
 IDIUse=1 WtCom= 1.00D+00 WtEn= 0.00D+00
 Coeff-Com:  0.109D-03-0.237D-03-0.690D-04 0.989D-03 0.754D-02 0.641D-03
 Coeff-Com: -0.556D-01-0.803D-01 0.231D+00 0.896D+00
 Coeff:      0.109D-03-0.237D-03-0.690D-04 0.989D-03 0.754D-02 0.641D-03
 Coeff:     -0.556D-01-0.803D-01 0.231D+00 0.896D+00
 Gap=     0.304 Goal=   None    Shift=    0.000
 RMSDP=1.18D-06 MaxDP=5.16D-05 DE=-3.38D-08 OVMax= 4.75D-05

 Cycle  11  Pass 1  IDiag  1:
 RMSU=  5.78D-07    CP:  7.20D-01  1.39D+00  7.39D-01  9.65D-01  1.11D+00
                    CP:  1.04D+00  1.24D+00  1.22D+00  1.36D+00  1.15D+00
 E= -460.888672160173     Delta-E=       -0.000000004177 Rises=F Damp=F
 DIIS: error= 1.57D-06 at cycle  11 NSaved=  11.
 NSaved=11 IEnMin=11 EnMin= -460.888672160173     IErMin=11 ErrMin= 1.57D-06
 ErrMax= 1.57D-06  0.00D+00 EMaxC= 1.00D-01 BMatC= 2.56D-10 BMatP= 1.19D-09
 IDIUse=1 WtCom= 1.00D+00 WtEn= 0.00D+00
 Coeff-Com:  0.140D-03-0.302D-03-0.240D-03 0.109D-03 0.428D-02 0.507D-02
 Coeff-Com: -0.908D-02-0.481D-01-0.795D-01 0.317D+00 0.811D+00
 Coeff:      0.140D-03-0.302D-03-0.240D-03 0.109D-03 0.428D-02 0.507D-02
 Coeff:     -0.908D-02-0.481D-01-0.795D-01 0.317D+00 0.811D+00
 Gap=     0.304 Goal=   None    Shift=    0.000
 RMSDP=5.27D-07 MaxDP=2.37D-05 DE=-4.18D-09 OVMax= 1.77D-05

 Cycle  12  Pass 1  IDiag  1:
 RMSU=  2.22D-07    CP:  7.20D-01  1.39D+00  7.39D-01  9.65D-01  1.11D+00
                    CP:  1.04D+00  1.24D+00  1.23D+00  1.39D+00  1.22D+00
                    CP:  1.07D+00
 E= -460.888672160883     Delta-E=       -0.000000000709 Rises=F Damp=F
 DIIS: error= 7.24D-07 at cycle  12 NSaved=  12.
 NSaved=12 IEnMin=12 EnMin= -460.888672160883     IErMin=12 ErrMin= 7.24D-07
 ErrMax= 7.24D-07  0.00D+00 EMaxC= 1.00D-01 BMatC= 1.62D-11 BMatP= 2.56D-10
 IDIUse=1 WtCom= 1.00D+00 WtEn= 0.00D+00
 Coeff-Com: -0.837D-05 0.187D-04-0.329D-05-0.125D-03-0.816D-03-0.143D-03
 Coeff-Com:  0.801D-02 0.107D-01-0.388D-01-0.117D+00-0.287D-01 0.117D+01
 Coeff:     -0.837D-05 0.187D-04-0.329D-05-0.125D-03-0.816D-03-0.143D-03
 Coeff:      0.801D-02 0.107D-01-0.388D-01-0.117D+00-0.287D-01 0.117D+01
 Gap=     0.304 Goal=   None    Shift=    0.000
 RMSDP=4.31D-07 MaxDP=2.51D-05 DE=-7.09D-10 OVMax= 8.68D-06

 Cycle  13  Pass 1  IDiag  1:
 RMSU=  1.09D-07    CP:  7.20D-01  1.39D+00  7.39D-01  9.65D-01  1.11D+00
                    CP:  1.04D+00  1.24D+00  1.23D+00  1.39D+00  1.24D+00
                    CP:  1.23D+00  1.38D+00
 E= -460.888672160991     Delta-E=       -0.000000000108 Rises=F Damp=F
 DIIS: error= 1.62D-07 at cycle  13 NSaved=  13.
 NSaved=13 IEnMin=13 EnMin= -460.888672160991     IErMin=13 ErrMin= 1.62D-07
 ErrMax= 1.62D-07  0.00D+00 EMaxC= 1.00D-01 BMatC= 3.15D-12 BMatP= 1.62D-11
 IDIUse=1 WtCom= 1.00D+00 WtEn= 0.00D+00
 Coeff-Com: -0.121D-04 0.262D-04 0.147D-04-0.505D-04-0.537D-03-0.428D-03
 Coeff-Com:  0.299D-02 0.757D-02-0.411D-02-0.560D-01-0.731D-01 0.347D+00
 Coeff-Com:  0.777D+00
 Coeff:     -0.121D-04 0.262D-04 0.147D-04-0.505D-04-0.537D-03-0.428D-03
 Coeff:      0.299D-02 0.757D-02-0.411D-02-0.560D-01-0.731D-01 0.347D+00
 Coeff:      0.777D+00
 Gap=     0.304 Goal=   None    Shift=    0.000
 RMSDP=1.38D-07 MaxDP=7.80D-06 DE=-1.08D-10 OVMax= 1.88D-06

 Cycle  14  Pass 1  IDiag  1:
 RMSU=  2.42D-08    CP:  7.20D-01  1.39D+00  7.39D-01  9.65D-01  1.11D+00
                    CP:  1.04D+00  1.24D+00  1.22D+00  1.39D+00  1.24D+00
                    CP:  1.23D+00  1.50D+00  1.27D+00
 E= -460.888672160994     Delta-E=       -0.000000000003 Rises=F Damp=F
 DIIS: error= 1.08D-07 at cycle  14 NSaved=  14.
 NSaved=14 IEnMin=14 EnMin= -460.888672160994     IErMin=14 ErrMin= 1.08D-07
 ErrMax= 1.08D-07  0.00D+00 EMaxC= 1.00D-01 BMatC= 5.00D-13 BMatP= 3.15D-12
 IDIUse=1 WtCom= 1.00D+00 WtEn= 0.00D+00
 Coeff-Com: -0.167D-05 0.345D-05 0.406D-05 0.938D-05 0.409D-04-0.914D-04
 Coeff-Com: -0.117D-02-0.953D-04 0.639D-02 0.102D-01-0.116D-01-0.171D+00
 Coeff-Com:  0.159D+00 0.101D+01
 Coeff:     -0.167D-05 0.345D-05 0.406D-05 0.938D-05 0.409D-04-0.914D-04
 Coeff:     -0.117D-02-0.953D-04 0.639D-02 0.102D-01-0.116D-01-0.171D+00
 Coeff:      0.159D+00 0.101D+01
 Gap=     0.304 Goal=   None    Shift=    0.000
 RMSDP=9.16D-08 MaxDP=5.73D-06 DE=-3.18D-12 OVMax= 1.49D-06

 Cycle  15  Pass 1  IDiag  1:
 RMSU=  1.22D-08    CP:  7.20D-01  1.39D+00  7.39D-01  9.65D-01  1.11D+00
                    CP:  1.04D+00  1.24D+00  1.22D+00  1.39D+00  1.23D+00
                    CP:  1.24D+00  1.57D+00  1.49D+00  1.27D+00
 E= -460.888672160988     Delta-E=        0.000000000006 Rises=F Damp=F
 DIIS: error= 3.02D-08 at cycle  15 NSaved=  15.
 NSaved=15 IEnMin=14 EnMin= -460.888672160994     IErMin=15 ErrMin= 3.02D-08
 ErrMax= 3.02D-08  0.00D+00 EMaxC= 1.00D-01 BMatC= 5.45D-14 BMatP= 5.00D-13
 IDIUse=1 WtCom= 1.00D+00 WtEn= 0.00D+00
 Coeff-Com:  0.733D-06-0.163D-05-0.865D-06 0.465D-05 0.510D-04 0.376D-04
 Coeff-Com: -0.307D-03-0.611D-03 0.136D-03 0.515D-02 0.101D-01-0.360D-01
 Coeff-Com: -0.118D+00 0.572D-02 0.113D+01
 Coeff:      0.733D-06-0.163D-05-0.865D-06 0.465D-05 0.510D-04 0.376D-04
 Coeff:     -0.307D-03-0.611D-03 0.136D-03 0.515D-02 0.101D-01-0.360D-01
 Coeff:     -0.118D+00 0.572D-02 0.113D+01
 Gap=     0.304 Goal=   None    Shift=    0.000
 RMSDP=2.30D-08 MaxDP=1.19D-06 DE= 5.91D-12 OVMax= 5.08D-07

 Cycle  16  Pass 1  IDiag  1:
 RMSU=  3.63D-09    CP:  7.20D-01  1.39D+00  7.39D-01  9.65D-01  1.11D+00
                    CP:  1.04D+00  1.24D+00  1.22D+00  1.39D+00  1.23D+00
                    CP:  1.24D+00  1.59D+00  1.57D+00  1.46D+00  1.33D+00
 E= -460.888672160999     Delta-E=       -0.000000000011 Rises=F Damp=F
 DIIS: error= 1.14D-08 at cycle  16 NSaved=  16.
 NSaved=16 IEnMin=16 EnMin= -460.888672160999     IErMin=16 ErrMin= 1.14D-08
 ErrMax= 1.14D-08  0.00D+00 EMaxC= 1.00D-01 BMatC= 8.33D-15 BMatP= 5.45D-14
 IDIUse=1 WtCom= 1.00D+00 WtEn= 0.00D+00
 Coeff-Com:  0.404D-06-0.869D-06-0.772D-06 0.188D-06 0.117D-04 0.231D-04
 Coeff-Com:  0.133D-04-0.180D-03-0.534D-03 0.413D-03 0.512D-02 0.517D-02
 Coeff-Com: -0.532D-01-0.825D-01 0.318D+00 0.808D+00
 Coeff:      0.404D-06-0.869D-06-0.772D-06 0.188D-06 0.117D-04 0.231D-04
 Coeff:      0.133D-04-0.180D-03-0.534D-03 0.413D-03 0.512D-02 0.517D-02
 Coeff:     -0.532D-01-0.825D-01 0.318D+00 0.808D+00
 Gap=     0.304 Goal=   None    Shift=    0.000
 RMSDP=3.21D-09 MaxDP=3.23D-07 DE=-1.11D-11 OVMax= 1.23D-07

 SCF Done:  E(RwB97XD) =  -460.888672161     A.U. after   16 cycles
            NFock= 16  Conv=0.32D-08     -V/T= 1.9983
 KE= 4.616673288464D+02 PE=-2.201283977396D+03 EE= 7.152309128075D+02
 Leave Link  502 at Mon Nov 21 14:55:30 2022, MaxMem= 16106127360 cpu:             958.5 elap:              30.7
 (Enter /opt/ap/G16/B01/g16/l601.exe)
 Copying SCF densities to generalized density rwf, IOpCl= 0 IROHF=0.

 **********************************************************************

            Population analysis using the SCF Density.

 **********************************************************************

 Orbital symmetries:
       Occupied  (A) (A) (A) (A) (A) (A) (A) (A) (A) (A) (A) (A)
                 (A) (A) (A) (A) (A) (A) (A) (A) (A) (A) (A) (A)
                 (A) (A) (A) (A) (A) (A) (A) (A) (A) (A) (A) (A)
                 (A) (A)
       Virtual   (A) (A) (A) (A) (A) (A) (A) (A) (A) (A) (A) (A)
                 (A) (A) (A) (A) (A) (A) (A) (A) (A) (A) (A) (A)
                 (A) (A) (A) (A) (A) (A) (A) (A) (A) (A) (A) (A)
                 (A) (A) (A) (A) (A) (A) (A) (A) (A) (A) (A) (A)
                 (A) (A) (A) (A) (A) (A) (A) (A) (A) (A) (A) (A)
                 (A) (A) (A) (A) (A) (A) (A) (A) (A) (A) (A) (A)
                 (A) (A) (A) (A) (A) (A) (A) (A) (A) (A) (A) (A)
                 (A) (A) (A) (A) (A) (A) (A) (A) (A) (A) (A) (A)
                 (A) (A) (A) (A) (A) (A) (A) (A) (A) (A) (A) (A)
                 (A) (A) (A) (A) (A) (A) (A) (A) (A) (A) (A) (A)
                 (A) (A) (A) (A) (A) (A) (A) (A) (A) (A) (A) (A)
                 (A) (A) (A) (A) (A) (A) (A) (A) (A) (A) (A) (A)
                 (A) (A) (A) (A) (A) (A) (A) (A) (A) (A) (A) (A)
                 (A) (A) (A) (A) (A) (A) (A) (A) (A) (A) (A) (A)
                 (A) (A) (A) (A) (A) (A) (A) (A) (A) (A) (A) (A)
                 (A) (A) (A) (A) (A) (A) (A) (A) (A) (A) (A) (A)
                 (A) (A) (A) (A) (A) (A) (A) (A) (A) (A) (A) (A)
                 (A) (A) (A) (A) (A) (A) (A) (A) (A) (A) (A) (A)
                 (A) (A) (A) (A) (A) (A) (A) (A) (A) (A) (A) (A)
                 (A) (A) (A) (A) (A) (A) (A) (A) (A) (A) (A) (A)
                 (A) (A) (A) (A) (A) (A) (A) (A) (A) (A) (A) (A)
                 (A) (A) (A) (A) (A)
 The electronic state is 1-A.
 Alpha  occ. eigenvalues --  -19.26590 -10.35311 -10.30071 -10.30014 -10.28431
 Alpha  occ. eigenvalues --  -10.27712 -10.27489 -10.27216 -10.27192 -10.26618
 Alpha  occ. eigenvalues --  -10.26458  -1.20095  -0.99104  -0.94569  -0.88869
 Alpha  occ. eigenvalues --   -0.86552  -0.84770  -0.75715  -0.74074  -0.72403
 Alpha  occ. eigenvalues --   -0.67968  -0.64779  -0.61660  -0.60434  -0.56138
 Alpha  occ. eigenvalues --   -0.55030  -0.52980  -0.51848  -0.51722  -0.48826
 Alpha  occ. eigenvalues --   -0.47997  -0.46420  -0.43949  -0.42817  -0.41934
 Alpha  occ. eigenvalues --   -0.35813  -0.32968  -0.28798
 Alpha virt. eigenvalues --    0.01624   0.03868   0.04241   0.04674   0.05059
 Alpha virt. eigenvalues --    0.06291   0.06581   0.08487   0.08797   0.09411
 Alpha virt. eigenvalues --    0.10822   0.11278   0.12227   0.12712   0.13883
 Alpha virt. eigenvalues --    0.14898   0.14961   0.15458   0.15844   0.16598
 Alpha virt. eigenvalues --    0.16772   0.17505   0.17765   0.17838   0.18343
 Alpha virt. eigenvalues --    0.18954   0.19095   0.19961   0.20400   0.20497
 Alpha virt. eigenvalues --    0.21829   0.21899   0.22239   0.22658   0.22976
 Alpha virt. eigenvalues --    0.25028   0.25807   0.25975   0.26183   0.26897
 Alpha virt. eigenvalues --    0.27056   0.28754   0.29503   0.29778   0.29975
 Alpha virt. eigenvalues --    0.31096   0.31755   0.31937   0.32395   0.33780
 Alpha virt. eigenvalues --    0.34275   0.34681   0.35437   0.35594   0.35921
 Alpha virt. eigenvalues --    0.37215   0.38242   0.38531   0.38889   0.40493
 Alpha virt. eigenvalues --    0.41470   0.42007   0.42630   0.43460   0.43893
 Alpha virt. eigenvalues --    0.45581   0.46822   0.47331   0.48694   0.50862
 Alpha virt. eigenvalues --    0.56855   0.58061   0.60051   0.60890   0.61562
 Alpha virt. eigenvalues --    0.62126   0.64703   0.65467   0.65751   0.66498
 Alpha virt. eigenvalues --    0.66780   0.67381   0.68186   0.69255   0.70481
 Alpha virt. eigenvalues --    0.70870   0.70966   0.71816   0.72011   0.73906
 Alpha virt. eigenvalues --    0.75714   0.76224   0.78223   0.81687   0.82089
 Alpha virt. eigenvalues --    0.83427   0.85310   0.86724   0.87881   0.89781
 Alpha virt. eigenvalues --    0.90758   0.91464   0.92695   0.93241   0.95945
 Alpha virt. eigenvalues --    0.96253   0.97527   0.99330   1.00364   1.01232
 Alpha virt. eigenvalues --    1.02226   1.03633   1.03839   1.05568   1.06132
 Alpha virt. eigenvalues --    1.06906   1.10059   1.11833   1.13704   1.13923
 Alpha virt. eigenvalues --    1.14748   1.18614   1.19273   1.19947   1.21093
 Alpha virt. eigenvalues --    1.22649   1.23219   1.24155   1.24405   1.27870
 Alpha virt. eigenvalues --    1.31826   1.34564   1.43790   1.45934   1.47997
 Alpha virt. eigenvalues --    1.54233   1.56378   1.57922   1.59324   1.60596
 Alpha virt. eigenvalues --    1.61343   1.62662   1.63031   1.68905   1.69657
 Alpha virt. eigenvalues --    1.70709   1.70968   1.73865   1.75991   1.76704
 Alpha virt. eigenvalues --    1.77916   1.80405   1.82002   1.85678   1.89105
 Alpha virt. eigenvalues --    1.90030   1.91569   1.93122   1.93241   1.96748
 Alpha virt. eigenvalues --    1.97276   1.99614   2.01015   2.03129   2.03923
 Alpha virt. eigenvalues --    2.04630   2.07488   2.08039   2.08480   2.09743
 Alpha virt. eigenvalues --    2.11403   2.13272   2.15262   2.19020   2.24698
 Alpha virt. eigenvalues --    2.27412   2.28059   2.32498   2.34478   2.37198
 Alpha virt. eigenvalues --    2.39279   2.42352   2.46813   2.50974   2.51901
 Alpha virt. eigenvalues --    2.52726   2.55486   2.55861   2.64896   2.66810
 Alpha virt. eigenvalues --    2.68549   2.71903   2.75392   2.77643   2.79747
 Alpha virt. eigenvalues --    2.81879   2.84706   2.87388   2.88334   2.92835
 Alpha virt. eigenvalues --    2.93426   2.94455   2.99525   3.00881   3.01915
 Alpha virt. eigenvalues --    3.02352   3.04607   3.06440   3.07602   3.08435
 Alpha virt. eigenvalues --    3.12070   3.17753   3.18316   3.20403   3.21548
 Alpha virt. eigenvalues --    3.23327   3.24454   3.28731   3.35120   3.37348
 Alpha virt. eigenvalues --    3.38006   3.48245   3.49773   3.53243   3.55725
 Alpha virt. eigenvalues --    3.65391   3.73624   3.78088   3.79574   3.83531
 Alpha virt. eigenvalues --    3.88009   3.89521   3.99271   4.22352   4.28147
 Alpha virt. eigenvalues --    4.43256   4.44809   4.46121   4.52291   4.58046
 Alpha virt. eigenvalues --    4.62410   4.94354   4.97368   5.12876   5.63995
 Alpha virt. eigenvalues --    6.20189  23.80523  24.05554  24.15258  24.16750
 Alpha virt. eigenvalues --   24.21942  24.25725  24.41181  24.43776  24.51608
 Alpha virt. eigenvalues --   24.53181  50.17811
          Condensed to atoms (all electrons):
               1          2          3          4          5          6
     1  C   19.709974   0.466689  -4.148341  -1.255664  -3.807270  -1.614202
     2  C    0.466689   9.924350  -1.630941  -2.048808  -1.222707  -1.015153
     3  C   -4.148341  -1.630941  12.714642   1.653094   0.208562  -0.796271
     4  C   -1.255664  -2.048808   1.653094   8.398241  -0.141865   0.041623
     5  C   -3.807270  -1.222707   0.208562  -0.141865   9.046026   1.863923
     6  C   -1.614202  -1.015153  -0.796271   0.041623   1.863923  10.152372
     7  C   -5.494425   2.045585   0.650930  -1.011984   0.435257  -1.174323
     8  O    0.546695  -0.127190  -0.039591   0.047453  -0.046602   0.200670
     9  C    0.980061  -0.595151  -0.886084   0.362196  -0.091370   0.288508
    10  H   -0.012996   0.035497   0.043756   0.414554  -0.002323  -0.041127
    11  C    0.249917  -0.445414   0.295120  -0.379708   0.382788  -1.077503
    12  H    0.002211  -0.018155  -0.042286   0.000911   0.455725   0.055791
    13  C   -0.116922   0.237679  -1.478982   0.359286  -0.812525  -0.805816
    14  H   -0.071365   0.014826  -0.152111   0.009575   0.032276   0.431925
    15  H   -0.187386   0.042353  -0.103111   0.003765  -0.017435  -0.012542
    16  H   -0.285277   0.031981   0.255126  -0.008866  -0.005017  -0.130450
    17  H    0.132922  -0.053486   0.024578  -0.085008   0.015052   0.007856
    18  H   -0.003898   0.013573  -0.016449   0.014354  -0.035461  -0.035777
    19  H    0.040715  -0.006191   0.026098  -0.016316  -0.037811  -0.018862
               7          8          9         10         11         12
     1  C   -5.494425   0.546695   0.980061  -0.012996   0.249917   0.002211
     2  C    2.045585  -0.127190  -0.595151   0.035497  -0.445414  -0.018155
     3  C    0.650930  -0.039591  -0.886084   0.043756   0.295120  -0.042286
     4  C   -1.011984   0.047453   0.362196   0.414554  -0.379708   0.000911
     5  C    0.435257  -0.046602  -0.091370  -0.002323   0.382788   0.455725
     6  C   -1.174323   0.200670   0.288508  -0.041127  -1.077503   0.055791
     7  C   11.770557  -0.930927  -0.111773   0.041697   0.171314  -0.003323
     8  O   -0.930927   8.110127   0.011439   0.000161   0.008386  -0.000220
     9  C   -0.111773   0.011439   6.178503  -0.129705  -0.322326   0.042601
    10  H    0.041697   0.000161  -0.129705   0.500220   0.033173   0.000485
    11  C    0.171314   0.008386  -0.322326   0.033173   6.417900  -0.145070
    12  H   -0.003323  -0.000220   0.042601   0.000485  -0.145070   0.513458
    13  C   -0.794559   0.251129   0.072523  -0.003488   0.620588   0.002178
    14  H   -0.070328   0.020836  -0.006179   0.000962   0.025854  -0.000177
    15  H    0.702519  -0.046060  -0.074419   0.002887   0.000821  -0.000700
    16  H    0.289729   0.221225   0.004537   0.000391  -0.001783   0.000097
    17  H   -0.199544   0.003256   0.489758  -0.020944   0.000002   0.001260
    18  H   -0.003115   0.000263   0.002791   0.000635   0.468214  -0.020137
    19  H    0.009618  -0.000589  -0.001171  -0.000530  -0.069580   0.000542
              13         14         15         16         17         18
     1  C   -0.116922  -0.071365  -0.187386  -0.285277   0.132922  -0.003898
     2  C    0.237679   0.014826   0.042353   0.031981  -0.053486   0.013573
     3  C   -1.478982  -0.152111  -0.103111   0.255126   0.024578  -0.016449
     4  C    0.359286   0.009575   0.003765  -0.008866  -0.085008   0.014354
     5  C   -0.812525   0.032276  -0.017435  -0.005017   0.015052  -0.035461
     6  C   -0.805816   0.431925  -0.012542  -0.130450   0.007856  -0.035777
     7  C   -0.794559  -0.070328   0.702519   0.289729  -0.199544  -0.003115
     8  O    0.251129   0.020836  -0.046060   0.221225   0.003256   0.000263
     9  C    0.072523  -0.006179  -0.074419   0.004537   0.489758   0.002791
    10  H   -0.003488   0.000962   0.002887   0.000391  -0.020944   0.000635
    11  C    0.620588   0.025854   0.000821  -0.001783   0.000002   0.468214
    12  H    0.002178  -0.000177  -0.000700   0.000097   0.001260  -0.020137
    13  C    8.240432   0.120708   0.003795  -0.110484   0.000767  -0.057045
    14  H    0.120708   0.630345   0.001136  -0.028195  -0.000378   0.001318
    15  H    0.003795   0.001136   0.502454   0.004037  -0.024454  -0.000028
    16  H   -0.110484  -0.028195   0.004037   0.484416  -0.000644  -0.000354
    17  H    0.000767  -0.000378  -0.024454  -0.000644   0.517288   0.000011
    18  H   -0.057045   0.001318  -0.000028  -0.000354   0.000011   0.506319
    19  H    0.414872  -0.027309   0.000020   0.002474  -0.000007  -0.014266
              19
     1  C    0.040715
     2  C   -0.006191
     3  C    0.026098
     4  C   -0.016316
     5  C   -0.037811
     6  C   -0.018862
     7  C    0.009618
     8  O   -0.000589
     9  C   -0.001171
    10  H   -0.000530
    11  C   -0.069580
    12  H    0.000542
    13  C    0.414872
    14  H   -0.027309
    15  H    0.000020
    16  H    0.002474
    17  H   -0.000007
    18  H   -0.014266
    19  H    0.506109
 Mulliken charges:
               1
     1  C    0.868561
     2  C    0.350664
     3  C   -0.577740
     4  C   -0.356833
     5  C   -0.219221
     6  C   -0.320645
     7  C   -0.322903
     8  O   -0.230461
     9  C   -0.214739
    10  H    0.136696
    11  C   -0.232693
    12  H    0.154809
    13  C   -0.144133
    14  H    0.066282
    15  H    0.202348
    16  H    0.277058
    17  H    0.191711
    18  H    0.179053
    19  H    0.192186
 Sum of Mulliken charges =  -0.00000
 Mulliken charges with hydrogens summed into heavy atoms:
               1
     1  C    0.868561
     2  C    0.350664
     3  C   -0.577740
     4  C   -0.220138
     5  C   -0.064412
     6  C   -0.254363
     7  C   -0.120554
     8  O    0.046597
     9  C   -0.023027
    11  C   -0.053640
    13  C    0.048053
 Electronic spatial extent (au):  <R**2>=           1501.1636
 Charge=             -0.0000 electrons
 Dipole moment (field-independent basis, Debye):
    X=              1.5674    Y=             -0.4622    Z=              0.2043  Tot=              1.6469
 Quadrupole moment (field-independent basis, Debye-Ang):
   XX=            -57.7066   YY=            -56.4040   ZZ=            -67.8572
   XY=              4.7042   XZ=             -0.1654   YZ=              0.6198
 Traceless Quadrupole moment (field-independent basis, Debye-Ang):
   XX=              2.9494   YY=              4.2519   ZZ=             -7.2013
   XY=              4.7042   XZ=             -0.1654   YZ=              0.6198
 Octapole moment (field-independent basis, Debye-Ang**2):
  XXX=              5.5738  YYY=              6.7180  ZZZ=              0.0647  XYY=             10.3077
  XXY=            -10.6909  XXZ=             -0.0385  XZZ=             -2.9041  YZZ=              4.6028
  YYZ=              1.8793  XYZ=             -0.6237
 Hexadecapole moment (field-independent basis, Debye-Ang**3):
 XXXX=          -1096.3910 YYYY=           -641.9004 ZZZZ=            -77.1216 XXXY=             22.7976
 XXXZ=              0.2402 YYYX=             17.7359 YYYZ=              4.9224 ZZZX=             -0.0294
 ZZZY=              0.3538 XXYY=           -321.3836 XXZZ=           -236.8018 YYZZ=           -142.2743
 XXYZ=              0.2982 YYXZ=             -1.5484 ZZXY=             -6.3462
 N-N= 5.634970635810D+02 E-N=-2.201283977586D+03  KE= 4.616673288464D+02
 No NMR shielding tensors so no spin-rotation constants.
 Leave Link  601 at Mon Nov 21 14:55:30 2022, MaxMem= 16106127360 cpu:               4.0 elap:               0.1
 (Enter /opt/ap/G16/B01/g16/l9999.exe)
 1\1\GINC-N11\SP\RwB97XD\6-311++G(d,p)\C10H8O1\ROOT\21-Nov-2022\0\\#P w
 B97XD/6-311++G(d,p) scf=maxcycle=512\\_conf034.gjf nmol_natom 1_19\\0,
 1\C\C,1,1.40879539\C,1,1.42289824,2,117.24956717\C,2,1.41887971,1,119.
 07594714,3,0.16510261,0\C,2,1.42227783,1,117.46262303,3,-179.44443577,
 0\C,1,1.42440336,2,119.00293897,4,179.73740031,0\C,3,1.35510367,1,122.
 33979448,2,-0.36120568,0\O,3,1.37615658,1,115.04370777,2,-179.5931286,
 0\C,4,1.34577659,2,121.30210156,1,0.17277764,0\H,4,0.93023405,2,119.33
 469462,1,-179.75965297,0\C,5,1.34486794,2,122.06073707,1,-0.32265162,0
 \H,5,0.92957893,2,118.96449269,1,179.64671542,0\C,6,1.35980576,1,121.1
 112438,2,0.11625163,0\H,6,0.92999796,1,119.43671105,2,-179.87270235,0\
 H,7,0.93052813,3,120.28038366,1,-179.76477098,0\H,8,0.81991994,3,109.4
 8785721,1,-10.,0\H,9,0.93027331,4,119.71917791,2,179.60144151,0\H,11,0
 .92987565,5,119.70372857,2,-179.69197286,0\H,13,0.93032717,6,120.14524
 692,1,179.85241379,0\\Version=ES64L-G16RevB.01\State=1-A\HF=-460.88867
 22\RMSD=3.213e-09\Dipole=-0.5633797,-0.082985,0.309093\Quadrupole=3.69
 17988,-5.3524979,1.6606991,0.0317613,3.3791861,0.5048735\PG=C01 [X(C10
 H8O1)]\\@


 CONFIDENCE IS WHAT YOU FEEL BEFORE YOU FULLY
 COMPREHEND THE SITUATION.
 Job cpu time:       0 days  0 hours 16 minutes 37.4 seconds.
 Elapsed time:       0 days  0 hours  0 minutes 32.0 seconds.
 File lengths (MBytes):  RWF=     51 Int=      0 D2E=      0 Chk=      6 Scr=      1
 Normal termination of Gaussian 16 at Mon Nov 21 14:55:30 2022.
