 Entering Gaussian System, Link 0=g16
 Input=_conf046.gjf
 Output=_conf046.log
 Initial command:
 /opt/ap/G16/B01/g16/l1.exe "/tmp2/scr/Gau-2012.inp" -scrdir="/tmp2/scr/"
 Entering Link 1 = /opt/ap/G16/B01/g16/l1.exe PID=      2013.
  
 Copyright (c) 1988-2017, Gaussian, Inc.  All Rights Reserved.
  
 This is part of the Gaussian(R) 16 program.  It is based on
 the Gaussian(R) 09 system (copyright 2009, Gaussian, Inc.),
 the Gaussian(R) 03 system (copyright 2003, Gaussian, Inc.),
 the Gaussian(R) 98 system (copyright 1998, Gaussian, Inc.),
 the Gaussian(R) 94 system (copyright 1995, Gaussian, Inc.),
 the Gaussian 92(TM) system (copyright 1992, Gaussian, Inc.),
 the Gaussian 90(TM) system (copyright 1990, Gaussian, Inc.),
 the Gaussian 88(TM) system (copyright 1988, Gaussian, Inc.),
 the Gaussian 86(TM) system (copyright 1986, Carnegie Mellon
 University), and the Gaussian 82(TM) system (copyright 1983,
 Carnegie Mellon University). Gaussian is a federally registered
 trademark of Gaussian, Inc.
  
 This software contains proprietary and confidential information,
 including trade secrets, belonging to Gaussian, Inc.
  
 This software is provided under written license and may be
 used, copied, transmitted, or stored only in accord with that
 written license.
  
 The following legend is applicable only to US Government
 contracts under FAR:
  
                    RESTRICTED RIGHTS LEGEND
  
 Use, reproduction and disclosure by the US Government is
 subject to restrictions as set forth in subparagraphs (a)
 and (c) of the Commercial Computer Software - Restricted
 Rights clause in FAR 52.227-19.
  
 Gaussian, Inc.
 340 Quinnipiac St., Bldg. 40, Wallingford CT 06492
  
  
 ---------------------------------------------------------------
 Warning -- This program may not be used in any manner that
 competes with the business of Gaussian, Inc. or will provide
 assistance to any competitor of Gaussian, Inc.  The licensee
 of this program is prohibited from giving any competitor of
 Gaussian, Inc. access to this program.  By using this program,
 the user acknowledges that Gaussian, Inc. is engaged in the
 business of creating and licensing software in the field of
 computational chemistry and represents and warrants to the
 licensee that it is not a competitor of Gaussian, Inc. and that
 it will not use this program in any manner prohibited above.
 ---------------------------------------------------------------
  

 Cite this work as:
 Gaussian 16, Revision B.01,
 M. J. Frisch, G. W. Trucks, H. B. Schlegel, G. E. Scuseria, 
 M. A. Robb, J. R. Cheeseman, G. Scalmani, V. Barone, 
 G. A. Petersson, H. Nakatsuji, X. Li, M. Caricato, A. V. Marenich, 
 J. Bloino, B. G. Janesko, R. Gomperts, B. Mennucci, H. P. Hratchian, 
 J. V. Ortiz, A. F. Izmaylov, J. L. Sonnenberg, D. Williams-Young, 
 F. Ding, F. Lipparini, F. Egidi, J. Goings, B. Peng, A. Petrone, 
 T. Henderson, D. Ranasinghe, V. G. Zakrzewski, J. Gao, N. Rega, 
 G. Zheng, W. Liang, M. Hada, M. Ehara, K. Toyota, R. Fukuda, 
 J. Hasegawa, M. Ishida, T. Nakajima, Y. Honda, O. Kitao, H. Nakai, 
 T. Vreven, K. Throssell, J. A. Montgomery, Jr., J. E. Peralta, 
 F. Ogliaro, M. J. Bearpark, J. J. Heyd, E. N. Brothers, K. N. Kudin, 
 V. N. Staroverov, T. A. Keith, R. Kobayashi, J. Normand, 
 K. Raghavachari, A. P. Rendell, J. C. Burant, S. S. Iyengar, 
 J. Tomasi, M. Cossi, J. M. Millam, M. Klene, C. Adamo, R. Cammi, 
 J. W. Ochterski, R. L. Martin, K. Morokuma, O. Farkas, 
 J. B. Foresman, and D. J. Fox, Gaussian, Inc., Wallingford CT, 2016.
 
 ******************************************
 Gaussian 16:  ES64L-G16RevB.01 20-Dec-2017
                21-Nov-2022 
 ******************************************
 %nprocshared=32
 Will use up to   32 processors via shared memory.
 %mem=120GB
 %chk=_conf046.chk
 ----------------------------------------
 #P wB97XD/6-311++G(d,p) scf=maxcycle=512
 ----------------------------------------
 1/38=1,172=1/1;
 2/12=2,17=6,18=5,40=1/2;
 3/5=4,6=6,7=1111,11=2,25=1,30=1,74=-58/1,2,3;
 4//1;
 5/5=2,7=512,38=5/2;
 6/7=2,8=2,9=2,10=2,28=1/1;
 99/5=1,9=1/99;
 Leave Link    1 at Mon Nov 21 14:56:30 2022, MaxMem= 16106127360 cpu:               1.5 elap:               0.1
 (Enter /opt/ap/G16/B01/g16/l101.exe)
 ----------------------------
 _conf046.gjf nmol_natom 1_19
 ----------------------------
 Symbolic Z-matrix:
 Charge =  0 Multiplicity = 1
 C
 C                    1     1.4088 
 C                    1     1.4229   2     117.24957 
 C                    2     1.41888  1     119.07595  3     0.1651   0
 C                    2     1.42228  1     117.46262  3    -179.44444  0
 C                    1     1.4244   2     119.00294  4     179.7374  0
 C                    3     1.3551   1     122.33979  2    -0.36121  0
 O                    3     1.37616  1     115.04371  2    -179.59313  0
 C                    4     1.34578  2     121.3021  1     0.17278  0
 H                    4     0.93023  2     119.33469  1    -179.75965  0
 C                    5     1.34487  2     122.06074  1    -0.32265  0
 H                    5     0.92958  2     118.96449  1     179.64672  0
 C                    6     1.35981  1     121.11124  2     0.11625  0
 H                    6     0.93     1     119.43671  2    -179.8727  0
 H                    7     0.93053  3     120.28038  1    -179.76477  0
 H                    8     0.81992  3     109.48786  1     50.      0
 H                    9     0.93027  4     119.71918  2     179.60144  0
 H                    11    0.92988  5     119.70373  2    -179.69197  0
 H                    13    0.93033  6     120.14525  1     179.85241  0
 
 ITRead=  0  0  0  0  0  0  0  0  0  0  0  0  0  0  0  0  0  0  0
 MicOpt= -1 -1 -1 -1 -1 -1 -1 -1 -1 -1 -1 -1 -1 -1 -1 -1 -1 -1 -1
 NAtoms=     19 NQM=       19 NQMF=       0 NMMI=      0 NMMIF=      0
                NMic=       0 NMicF=      0.
                    Isotopes and Nuclear Properties:
 (Nuclear quadrupole moments (NQMom) in fm**2, nuclear magnetic moments (NMagM)
  in nuclear magnetons)

  Atom         1           2           3           4           5           6           7           8           9          10
 IAtWgt=          12          12          12          12          12          12          12          16          12           1
 AtmWgt=  12.0000000  12.0000000  12.0000000  12.0000000  12.0000000  12.0000000  12.0000000  15.9949146  12.0000000   1.0078250
 NucSpn=           0           0           0           0           0           0           0           0           0           1
 AtZEff=  -0.0000000  -0.0000000  -0.0000000  -0.0000000  -0.0000000  -0.0000000  -0.0000000  -0.0000000  -0.0000000  -0.0000000
 NQMom=    0.0000000   0.0000000   0.0000000   0.0000000   0.0000000   0.0000000   0.0000000   0.0000000   0.0000000   0.0000000
 NMagM=    0.0000000   0.0000000   0.0000000   0.0000000   0.0000000   0.0000000   0.0000000   0.0000000   0.0000000   2.7928460
 AtZNuc=   6.0000000   6.0000000   6.0000000   6.0000000   6.0000000   6.0000000   6.0000000   8.0000000   6.0000000   1.0000000

  Atom        11          12          13          14          15          16          17          18          19
 IAtWgt=          12           1          12           1           1           1           1           1           1
 AtmWgt=  12.0000000   1.0078250  12.0000000   1.0078250   1.0078250   1.0078250   1.0078250   1.0078250   1.0078250
 NucSpn=           0           1           0           1           1           1           1           1           1
 AtZEff=  -0.0000000  -0.0000000  -0.0000000  -0.0000000  -0.0000000  -0.0000000  -0.0000000  -0.0000000  -0.0000000
 NQMom=    0.0000000   0.0000000   0.0000000   0.0000000   0.0000000   0.0000000   0.0000000   0.0000000   0.0000000
 NMagM=    0.0000000   2.7928460   0.0000000   2.7928460   2.7928460   2.7928460   2.7928460   2.7928460   2.7928460
 AtZNuc=   6.0000000   1.0000000   6.0000000   1.0000000   1.0000000   1.0000000   1.0000000   1.0000000   1.0000000
 Leave Link  101 at Mon Nov 21 14:56:31 2022, MaxMem= 16106127360 cpu:               6.1 elap:               0.2
 (Enter /opt/ap/G16/B01/g16/l202.exe)
                          Input orientation:                          
 ---------------------------------------------------------------------
 Center     Atomic      Atomic             Coordinates (Angstroms)
 Number     Number       Type             X           Y           Z
 ---------------------------------------------------------------------
      1          6           0        0.000000    0.000000    0.000000
      2          6           0        0.000000    0.000000    1.408795
      3          6           0        1.264986    0.000000   -0.651498
      4          6           0        1.240062    0.003573    2.098326
      5          6           0       -1.261945   -0.012237    2.064707
      6          6           0       -1.245741   -0.009299   -0.690628
      7          6           0        2.433644    0.007218    0.034427
      8          8           0        1.212032    0.008854   -2.026607
      9          6           0        2.409936    0.010412    1.433147
     10          1           0        1.244276    0.000184    3.028545
     11          6           0       -2.421000   -0.017057    1.382624
     12          1           0       -1.286266   -0.017488    2.993953
     13          6           0       -2.424704   -0.015738   -0.013076
     14          1           0       -1.252769   -0.011151   -1.620598
     15          1           0        3.245045    0.010306   -0.421097
     16          1           0        0.706961    0.604205   -2.277064
     17          1           0        3.210137    0.018260    1.907515
     18          1           0       -3.227740   -0.020753    1.845035
     19          1           0       -3.230632   -0.019714   -0.477804
 ---------------------------------------------------------------------
                    Distance matrix (angstroms):
                    1          2          3          4          5
     1  C    0.000000
     2  C    1.408795   0.000000
     3  C    1.422898   2.417643   0.000000
     4  C    2.437363   1.418880   2.749940   0.000000
     5  C    2.419849   1.422278   3.709892   2.502283   0.000000
     6  C    1.424403   2.441216   2.511049   3.735994   2.755385
     7  C    2.433898   2.794917   1.355104   2.384184   4.216609
     8  O    2.361406   3.642951   1.376157   4.125032   4.781198
     9  C    2.803892   2.410081   2.378396   1.345777   3.725867
    10  H    3.274188   2.042501   3.680101   0.930234   2.685197
    11  C    2.788042   2.421201   4.210040   3.730420   1.344868
    12  H    3.258610   2.041448   4.449551   2.680471   0.929579
    13  C    2.424790   2.810899   3.744548   4.229527   2.381009
    14  H    2.048388   3.278228   2.697845   4.477144   3.685317
    15  H    3.272269   3.725443   1.993445   3.219859   5.147104
    16  H    2.459650   3.801370   1.821790   4.448482   4.807033
    17  H    3.734157   3.248697   3.214420   1.979348   4.474947
    18  H    3.717915   3.257153   5.139815   4.475043   1.978050
    19  H    3.265834   3.741207   4.499015   5.159854   3.215610
                    6          7          8          9         10
     6  C    0.000000
     7  C    3.750180   0.000000
     8  O    2.797466   2.395871   0.000000
     9  C    4.227858   1.398925   3.661267   0.000000
    10  H    4.475771   3.221706   5.055262   1.975895   0.000000
    11  C    2.383205   5.038431   4.982213   4.831278   4.017910
    12  H    3.684813   4.753644   5.607870   4.012331   2.530840
    13  C    1.359806   4.858634   4.157013   5.046383   4.765829
    14  H    0.929998   4.040926   2.498097   4.768777   5.277300
    15  H    4.498910   0.930528   2.590522   2.033624   3.987882
    16  H    2.589635   2.946322   0.819920   4.125334   5.366846
    17  H    5.158096   2.027689   4.412463   0.930273   2.263105
    18  H    3.218391   5.943934   5.890846   5.652788   4.626021
    19  H    1.996295   5.687453   4.704984   5.955556   5.685040
                   11         12         13         14         15
    11  C    0.000000
    12  H    1.970788   0.000000
    13  C    1.395705   3.215317   0.000000
    14  H    3.222443   4.614677   1.989366   0.000000
    15  H    5.946277   5.674162   5.684470   4.655061   0.000000
    16  H    4.854216   5.669486   3.913731   2.156421   3.199875
    17  H    5.655657   4.625934   5.953256   5.689110   2.328887
    18  H    0.929876   2.255958   2.024221   3.988887   6.858080
    19  H    2.028966   3.979153   0.930327   2.284293   6.475995
                   16         17         18         19
    16  H    0.000000
    17  H    4.911204   0.000000
    18  H    5.732726   6.438299   0.000000
    19  H    4.373928   6.868384   2.322841   0.000000
 Stoichiometry    C10H8O
 Framework group  C1[X(C10H8O)]
 Deg. of freedom    51
 Full point group                 C1      NOp   1
 Largest Abelian subgroup         C1      NOp   1
 Largest concise Abelian subgroup C1      NOp   1
                         Standard orientation:                         
 ---------------------------------------------------------------------
 Center     Atomic      Atomic             Coordinates (Angstroms)
 Number     Number       Type             X           Y           Z
 ---------------------------------------------------------------------
      1          6           0       -0.026745    0.426210   -0.009860
      2          6           0       -0.335338   -0.948272    0.006732
      3          6           0        1.350184    0.784648   -0.025002
      4          6           0        0.723554   -1.892702    0.011104
      5          6           0       -1.710368   -1.311806    0.009673
      6          6           0       -1.090985    1.372897   -0.019936
      7          6           0        2.340228   -0.140581   -0.016607
      8          8           0        1.599806    2.137957   -0.032032
      9          6           0        2.010737   -1.500006    0.003200
     10          1           0        0.523875   -2.801221    0.018645
     11          6           0       -2.691865   -0.392405    0.003664
     12          1           0       -1.937691   -2.213143    0.015511
     13          6           0       -2.389743    0.970124   -0.011433
     14          1           0       -0.894150    2.281737   -0.032699
     15          1           0        3.231702    0.126079   -0.023675
     16          1           0        1.166847    2.499059    0.563300
     17          1           0        2.687633   -2.138085    0.011910
     18          1           0       -3.580305   -0.666813    0.010178
     19          1           0       -3.074306    1.600093   -0.016123
 ---------------------------------------------------------------------
 Rotational constants (GHZ):           2.0023274           1.1578753           0.7343895
 Leave Link  202 at Mon Nov 21 14:56:31 2022, MaxMem= 16106127360 cpu:               0.3 elap:               0.0
 (Enter /opt/ap/G16/B01/g16/l301.exe)
 Standard basis: 6-311++G(d,p) (5D, 7F)
 Ernie: Thresh=  0.10000D-02 Tol=  0.10000D-05 Strict=F.
 There are   309 symmetry adapted cartesian basis functions of A   symmetry.
 There are   298 symmetry adapted basis functions of A   symmetry.
   298 basis functions,   468 primitive gaussians,   309 cartesian basis functions
    38 alpha electrons       38 beta electrons
       nuclear repulsion energy       563.1509005835 Hartrees.
 IExCor= 4639 DFT=T Ex+Corr=wB97XD ExCW=0 ScaHFX=  1.000000
 ScaDFX=  1.000000  1.000000  1.000000  1.000000 ScalE2=  1.000000  1.000000
 IRadAn=      5 IRanWt=     -1 IRanGd=            0 ICorTp=0 IEmpDi=121
 HFx  wShort=  0.000000 wLong=  0.200000 cFull=  0.222036 cShort=  0.000000 cLong=  0.777964
 DFx  wShort=  0.000000 wLong=  0.200000 cFull=  0.000000 cShort=  0.000000 cLong=  1.000000
 NAtoms=   19 NActive=   19 NUniq=   19 SFac= 1.00D+00 NAtFMM=   60 NAOKFM=F Big=F
 Integral buffers will be    131072 words long.
 Raffenetti 2 integral format.
 Two-electron integral symmetry is turned on.
 R6Disp:  Grimme-D2 Dispersion energy=       -0.0103439792 Hartrees.
 Nuclear repulsion after empirical dispersion term =      563.1405566043 Hartrees.
 Leave Link  301 at Mon Nov 21 14:56:31 2022, MaxMem= 16106127360 cpu:               1.6 elap:               0.1
 (Enter /opt/ap/G16/B01/g16/l302.exe)
 NPDir=0 NMtPBC=     1 NCelOv=     1 NCel=       1 NClECP=     1 NCelD=      1
         NCelK=      1 NCelE2=     1 NClLst=     1 CellRange=     0.0.
 One-electron integrals computed using PRISM.
 One-electron integral symmetry used in STVInt
 NBasis=   298 RedAO= T EigKep=  1.30D-06  NBF=   298
 NBsUse=   296 1.00D-06 EigRej=  6.41D-07 NBFU=   296
 Precomputing XC quadrature grid using
 IXCGrd= 4 IRadAn=           5 IRanWt=          -1 IRanGd=           0 AccXCQ= 0.00D+00.
 Generated NRdTot=       0 NPtTot=           0 NUsed=           0 NTot=          32
 NSgBfM=   309   309   309   309   309 MxSgAt=    19 MxSgA2=    19.
 Leave Link  302 at Mon Nov 21 14:56:31 2022, MaxMem= 16106127360 cpu:               7.6 elap:               0.2
 (Enter /opt/ap/G16/B01/g16/l303.exe)
 DipDrv:  MaxL=1.
 Leave Link  303 at Mon Nov 21 14:56:31 2022, MaxMem= 16106127360 cpu:               1.4 elap:               0.1
 (Enter /opt/ap/G16/B01/g16/l401.exe)
 ExpMin= 3.60D-02 ExpMax= 8.59D+03 ExpMxC= 1.30D+03 IAcc=3 IRadAn=         5 AccDes= 0.00D+00
 Harris functional with IExCor= 4639 and IRadAn=       5 diagonalized for initial guess.
 HarFok:  IExCor= 4639 AccDes= 0.00D+00 IRadAn=         5 IDoV= 1 UseB2=F ITyADJ=14
 ICtDFT=  3500011 ScaDFX=  1.000000  1.000000  1.000000  1.000000
 FoFCou: FMM=F IPFlag=           0 FMFlag=      100000 FMFlg1=           0
         NFxFlg=           0 DoJE=T BraDBF=F KetDBF=T FulRan=T
         wScrn=  0.000000 ICntrl=       500 IOpCl=  0 I1Cent=   200000004 NGrid=           0
         NMat0=    1 NMatS0=      1 NMatT0=    0 NMatD0=    1 NMtDS0=    0 NMtDT0=    0
 Petite list used in FoFCou.
 Harris En= -440.612159642835    
 JPrj=0 DoOrth=F DoCkMO=F.
 Leave Link  401 at Mon Nov 21 14:56:31 2022, MaxMem= 16106127360 cpu:              16.1 elap:               0.5
 (Enter /opt/ap/G16/B01/g16/l502.exe)
 Integral symmetry usage will be decided dynamically.
 Closed shell SCF:
 Using DIIS extrapolation, IDIIS=  1040.
 NGot= 16106127360 LenX= 16105923535 LenY= 16105827613
 Requested convergence on RMS density matrix=1.00D-08 within 512 cycles.
 Requested convergence on MAX density matrix=1.00D-06.
 Requested convergence on             energy=1.00D-06.
 No special actions if energy rises.
 Fock matrices will be formed incrementally for  20 cycles.

 Cycle   1  Pass 1  IDiag  1:
 FoFJK:  IHMeth= 1 ICntrl=       0 DoSepK=T KAlg= 0 I1Cent=           0 FoldK=F
 IRaf=         1 NMat=       1 IRICut=       1 DoRegI=T DoRafI=F ISym2E= 0 IDoP0=0 IntGTp=1.
 FoFCou: FMM=F IPFlag=           0 FMFlag=      100000 FMFlg1=           0
         NFxFlg=           0 DoJE=T BraDBF=F KetDBF=F FulRan=T
         wScrn=  0.000000 ICntrl=       500 IOpCl=  0 I1Cent=           0 NGrid=           0
         NMat0=    1 NMatS0=      1 NMatT0=    0 NMatD0=    1 NMtDS0=    0 NMtDT0=    0
 Symmetry not used in FoFCou.
 E= -460.751285060500    
 DIIS: error= 6.22D-02 at cycle   1 NSaved=   1.
 NSaved= 1 IEnMin= 1 EnMin= -460.751285060500     IErMin= 1 ErrMin= 6.22D-02
 ErrMax= 6.22D-02  0.00D+00 EMaxC= 1.00D-01 BMatC= 9.55D-01 BMatP= 9.55D-01
 IDIUse=3 WtCom= 3.78D-01 WtEn= 6.22D-01
 Coeff-Com:  0.100D+01
 Coeff-En:   0.100D+01
 Coeff:      0.100D+01
 Gap=     0.335 Goal=   None    Shift=    0.000
 GapD=    0.335 DampG=1.000 DampE=0.500 DampFc=0.5000 IDamp=-1.
 Damping current iteration by 5.00D-01
 RMSDP=4.47D-02 MaxDP=4.99D+00              OVMax= 1.39D-01

 Cycle   2  Pass 1  IDiag  1:
 RMSU=  8.47D-03    CP:  8.09D-01
 E= -460.818036202987     Delta-E=       -0.066751142487 Rises=F Damp=T
 DIIS: error= 3.12D-02 at cycle   2 NSaved=   2.
 NSaved= 2 IEnMin= 2 EnMin= -460.818036202987     IErMin= 2 ErrMin= 3.12D-02
 ErrMax= 3.12D-02  0.00D+00 EMaxC= 1.00D-01 BMatC= 2.08D-01 BMatP= 9.55D-01
 IDIUse=3 WtCom= 6.88D-01 WtEn= 3.12D-01
 Coeff-Com: -0.718D+00 0.172D+01
 Coeff-En:   0.000D+00 0.100D+01
 Coeff:     -0.494D+00 0.149D+01
 Gap=     0.331 Goal=   None    Shift=    0.000
 RMSDP=2.58D-02 MaxDP=2.92D+00 DE=-6.68D-02 OVMax= 1.36D-01

 Cycle   3  Pass 1  IDiag  1:
 RMSU=  6.59D-03    CP:  5.82D-01  1.44D+00
 E= -460.863215405138     Delta-E=       -0.045179202151 Rises=F Damp=F
 DIIS: error= 8.94D-03 at cycle   3 NSaved=   3.
 NSaved= 3 IEnMin= 3 EnMin= -460.863215405138     IErMin= 3 ErrMin= 8.94D-03
 ErrMax= 8.94D-03  0.00D+00 EMaxC= 1.00D-01 BMatC= 2.65D-02 BMatP= 2.08D-01
 IDIUse=3 WtCom= 9.11D-01 WtEn= 8.94D-02
 Coeff-Com: -0.356D+00 0.758D+00 0.598D+00
 Coeff-En:   0.000D+00 0.000D+00 0.100D+01
 Coeff:     -0.324D+00 0.690D+00 0.634D+00
 Gap=     0.313 Goal=   None    Shift=    0.000
 RMSDP=4.06D-03 MaxDP=3.98D-01 DE=-4.52D-02 OVMax= 6.03D-02

 Cycle   4  Pass 1  IDiag  1:
 RMSU=  1.33D-03    CP:  5.60D-01  1.61D+00  6.00D-01
 E= -460.887145468610     Delta-E=       -0.023930063471 Rises=F Damp=F
 DIIS: error= 1.35D-03 at cycle   4 NSaved=   4.
 NSaved= 4 IEnMin= 4 EnMin= -460.887145468610     IErMin= 4 ErrMin= 1.35D-03
 ErrMax= 1.35D-03  0.00D+00 EMaxC= 1.00D-01 BMatC= 7.81D-04 BMatP= 2.65D-02
 IDIUse=3 WtCom= 9.86D-01 WtEn= 1.35D-02
 Coeff-Com: -0.124D+00 0.264D+00 0.284D+00 0.576D+00
 Coeff-En:   0.000D+00 0.000D+00 0.000D+00 0.100D+01
 Coeff:     -0.122D+00 0.261D+00 0.280D+00 0.582D+00
 Gap=     0.307 Goal=   None    Shift=    0.000
 RMSDP=5.37D-04 MaxDP=2.40D-02 DE=-2.39D-02 OVMax= 7.81D-03

 Cycle   5  Pass 1  IDiag  1:
 RMSU=  3.64D-04    CP:  5.60D-01  1.62D+00  6.48D-01  8.29D-01
 E= -460.887884634380     Delta-E=       -0.000739165770 Rises=F Damp=F
 DIIS: error= 2.16D-04 at cycle   5 NSaved=   5.
 NSaved= 5 IEnMin= 5 EnMin= -460.887884634380     IErMin= 5 ErrMin= 2.16D-04
 ErrMax= 2.16D-04  0.00D+00 EMaxC= 1.00D-01 BMatC= 1.66D-05 BMatP= 7.81D-04
 IDIUse=3 WtCom= 9.98D-01 WtEn= 2.16D-03
 Coeff-Com:  0.705D-02-0.147D-01 0.998D-02 0.140D+00 0.858D+00
 Coeff-En:   0.000D+00 0.000D+00 0.000D+00 0.000D+00 0.100D+01
 Coeff:      0.704D-02-0.147D-01 0.996D-02 0.140D+00 0.858D+00
 Gap=     0.308 Goal=   None    Shift=    0.000
 RMSDP=2.21D-04 MaxDP=1.01D-02 DE=-7.39D-04 OVMax= 2.78D-03

 Cycle   6  Pass 1  IDiag  1:
 RMSU=  1.82D-04    CP:  5.59D-01  1.62D+00  6.57D-01  8.63D-01  1.09D+00
 E= -460.887907591315     Delta-E=       -0.000022956936 Rises=F Damp=F
 DIIS: error= 1.45D-04 at cycle   6 NSaved=   6.
 NSaved= 6 IEnMin= 6 EnMin= -460.887907591315     IErMin= 6 ErrMin= 1.45D-04
 ErrMax= 1.45D-04  0.00D+00 EMaxC= 1.00D-01 BMatC= 3.77D-06 BMatP= 1.66D-05
 IDIUse=3 WtCom= 9.99D-01 WtEn= 1.45D-03
 Coeff-Com:  0.164D-01-0.350D-01-0.249D-01-0.640D-02 0.346D+00 0.704D+00
 Coeff-En:   0.000D+00 0.000D+00 0.000D+00 0.000D+00 0.000D+00 0.100D+01
 Coeff:      0.164D-01-0.350D-01-0.248D-01-0.639D-02 0.346D+00 0.704D+00
 Gap=     0.308 Goal=   None    Shift=    0.000
 RMSDP=1.14D-04 MaxDP=1.01D-02 DE=-2.30D-05 OVMax= 1.00D-03

 Cycle   7  Pass 1  IDiag  1:
 RMSU=  4.92D-05    CP:  5.59D-01  1.63D+00  6.56D-01  8.79D-01  1.19D+00
                    CP:  9.96D-01
 E= -460.887912993974     Delta-E=       -0.000005402658 Rises=F Damp=F
 DIIS: error= 4.81D-05 at cycle   7 NSaved=   7.
 NSaved= 7 IEnMin= 7 EnMin= -460.887912993974     IErMin= 7 ErrMin= 4.81D-05
 ErrMax= 4.81D-05  0.00D+00 EMaxC= 1.00D-01 BMatC= 2.72D-07 BMatP= 3.77D-06
 IDIUse=1 WtCom= 1.00D+00 WtEn= 0.00D+00
 Coeff-Com:  0.132D-02-0.280D-02-0.267D-02-0.144D-01-0.572D-01 0.844D-01
 Coeff-Com:  0.991D+00
 Coeff:      0.132D-02-0.280D-02-0.267D-02-0.144D-01-0.572D-01 0.844D-01
 Coeff:      0.991D+00
 Gap=     0.308 Goal=   None    Shift=    0.000
 RMSDP=2.73D-05 MaxDP=1.72D-03 DE=-5.40D-06 OVMax= 6.78D-04

 Cycle   8  Pass 1  IDiag  1:
 RMSU=  1.51D-05    CP:  5.58D-01  1.63D+00  6.57D-01  8.80D-01  1.20D+00
                    CP:  1.06D+00  1.11D+00
 E= -460.887913872068     Delta-E=       -0.000000878094 Rises=F Damp=F
 DIIS: error= 2.28D-05 at cycle   8 NSaved=   8.
 NSaved= 8 IEnMin= 8 EnMin= -460.887913872068     IErMin= 8 ErrMin= 2.28D-05
 ErrMax= 2.28D-05  0.00D+00 EMaxC= 1.00D-01 BMatC= 8.71D-08 BMatP= 2.72D-07
 IDIUse=1 WtCom= 1.00D+00 WtEn= 0.00D+00
 Coeff-Com: -0.206D-02 0.443D-02 0.324D-02-0.429D-02-0.816D-01-0.874D-01
 Coeff-Com:  0.422D+00 0.745D+00
 Coeff:     -0.206D-02 0.443D-02 0.324D-02-0.429D-02-0.816D-01-0.874D-01
 Coeff:      0.422D+00 0.745D+00
 Gap=     0.308 Goal=   None    Shift=    0.000
 RMSDP=1.21D-05 MaxDP=1.15D-03 DE=-8.78D-07 OVMax= 2.37D-04

 Cycle   9  Pass 1  IDiag  1:
 RMSU=  6.87D-06    CP:  5.59D-01  1.63D+00  6.57D-01  8.79D-01  1.21D+00
                    CP:  1.10D+00  1.18D+00  1.00D+00
 E= -460.887914052692     Delta-E=       -0.000000180624 Rises=F Damp=F
 DIIS: error= 8.58D-06 at cycle   9 NSaved=   9.
 NSaved= 9 IEnMin= 9 EnMin= -460.887914052692     IErMin= 9 ErrMin= 8.58D-06
 ErrMax= 8.58D-06  0.00D+00 EMaxC= 1.00D-01 BMatC= 5.87D-09 BMatP= 8.71D-08
 IDIUse=1 WtCom= 1.00D+00 WtEn= 0.00D+00
 Coeff-Com: -0.701D-03 0.150D-02 0.130D-02 0.142D-02-0.112D-01-0.368D-01
 Coeff-Com: -0.502D-01 0.123D+00 0.972D+00
 Coeff:     -0.701D-03 0.150D-02 0.130D-02 0.142D-02-0.112D-01-0.368D-01
 Coeff:     -0.502D-01 0.123D+00 0.972D+00
 Gap=     0.308 Goal=   None    Shift=    0.000
 RMSDP=4.30D-06 MaxDP=4.17D-04 DE=-1.81D-07 OVMax= 1.28D-04

 Cycle  10  Pass 1  IDiag  1:
 RMSU=  2.80D-06    CP:  5.59D-01  1.63D+00  6.57D-01  8.78D-01  1.21D+00
                    CP:  1.11D+00  1.19D+00  1.13D+00  1.15D+00
 E= -460.887914078756     Delta-E=       -0.000000026064 Rises=F Damp=F
 DIIS: error= 3.63D-06 at cycle  10 NSaved=  10.
 NSaved=10 IEnMin=10 EnMin= -460.887914078756     IErMin=10 ErrMin= 3.63D-06
 ErrMax= 3.63D-06  0.00D+00 EMaxC= 1.00D-01 BMatC= 8.72D-10 BMatP= 5.87D-09
 IDIUse=1 WtCom= 1.00D+00 WtEn= 0.00D+00
 Coeff-Com:  0.626D-04-0.139D-03-0.354D-04 0.903D-03 0.658D-02 0.114D-02
 Coeff-Com: -0.516D-01-0.708D-01 0.218D+00 0.896D+00
 Coeff:      0.626D-04-0.139D-03-0.354D-04 0.903D-03 0.658D-02 0.114D-02
 Coeff:     -0.516D-01-0.708D-01 0.218D+00 0.896D+00
 Gap=     0.308 Goal=   None    Shift=    0.000
 RMSDP=1.64D-06 MaxDP=1.08D-04 DE=-2.61D-08 OVMax= 3.96D-05

 Cycle  11  Pass 1  IDiag  1:
 RMSU=  6.73D-07    CP:  5.59D-01  1.63D+00  6.57D-01  8.78D-01  1.21D+00
                    CP:  1.10D+00  1.18D+00  1.15D+00  1.25D+00  1.17D+00
 E= -460.887914081769     Delta-E=       -0.000000003013 Rises=F Damp=F
 DIIS: error= 1.08D-06 at cycle  11 NSaved=  11.
 NSaved=11 IEnMin=11 EnMin= -460.887914081769     IErMin=11 ErrMin= 1.08D-06
 ErrMax= 1.08D-06  0.00D+00 EMaxC= 1.00D-01 BMatC= 2.07D-10 BMatP= 8.72D-10
 IDIUse=1 WtCom= 1.00D+00 WtEn= 0.00D+00
 Coeff-Com:  0.131D-03-0.282D-03-0.218D-03 0.119D-03 0.403D-02 0.553D-02
 Coeff-Com: -0.979D-02-0.462D-01-0.750D-01 0.335D+00 0.787D+00
 Coeff:      0.131D-03-0.282D-03-0.218D-03 0.119D-03 0.403D-02 0.553D-02
 Coeff:     -0.979D-02-0.462D-01-0.750D-01 0.335D+00 0.787D+00
 Gap=     0.308 Goal=   None    Shift=    0.000
 RMSDP=5.74D-07 MaxDP=3.85D-05 DE=-3.01D-09 OVMax= 1.46D-05

 Cycle  12  Pass 1  IDiag  1:
 RMSU=  3.09D-07    CP:  5.59D-01  1.63D+00  6.57D-01  8.78D-01  1.21D+00
                    CP:  1.10D+00  1.18D+00  1.16D+00  1.27D+00  1.23D+00
                    CP:  1.13D+00
 E= -460.887914082320     Delta-E=       -0.000000000551 Rises=F Damp=F
 DIIS: error= 4.87D-07 at cycle  12 NSaved=  12.
 NSaved=12 IEnMin=12 EnMin= -460.887914082320     IErMin=12 ErrMin= 4.87D-07
 ErrMax= 4.87D-07  0.00D+00 EMaxC= 1.00D-01 BMatC= 1.46D-11 BMatP= 2.07D-10
 IDIUse=1 WtCom= 1.00D+00 WtEn= 0.00D+00
 Coeff-Com: -0.150D-05 0.397D-05-0.995D-05-0.125D-03-0.712D-03-0.993D-04
 Coeff-Com:  0.736D-02 0.891D-02-0.401D-01-0.113D+00-0.145D-01 0.115D+01
 Coeff:     -0.150D-05 0.397D-05-0.995D-05-0.125D-03-0.712D-03-0.993D-04
 Coeff:      0.736D-02 0.891D-02-0.401D-01-0.113D+00-0.145D-01 0.115D+01
 Gap=     0.308 Goal=   None    Shift=    0.000
 RMSDP=2.09D-07 MaxDP=1.40D-05 DE=-5.51D-10 OVMax= 8.34D-06

 Cycle  13  Pass 1  IDiag  1:
 RMSU=  9.66D-08    CP:  5.59D-01  1.63D+00  6.57D-01  8.78D-01  1.21D+00
                    CP:  1.10D+00  1.18D+00  1.16D+00  1.27D+00  1.25D+00
                    CP:  1.32D+00  1.33D+00
 E= -460.887914082405     Delta-E=       -0.000000000084 Rises=F Damp=F
 DIIS: error= 1.61D-07 at cycle  13 NSaved=  13.
 NSaved=13 IEnMin=13 EnMin= -460.887914082405     IErMin=13 ErrMin= 1.61D-07
 ErrMax= 1.61D-07  0.00D+00 EMaxC= 1.00D-01 BMatC= 4.42D-12 BMatP= 1.46D-11
 IDIUse=1 WtCom= 1.00D+00 WtEn= 0.00D+00
 Coeff-Com: -0.125D-04 0.272D-04 0.162D-04-0.616D-04-0.642D-03-0.580D-03
 Coeff-Com:  0.399D-02 0.870D-02-0.686D-02-0.756D-01-0.885D-01 0.469D+00
 Coeff-Com:  0.690D+00
 Coeff:     -0.125D-04 0.272D-04 0.162D-04-0.616D-04-0.642D-03-0.580D-03
 Coeff:      0.399D-02 0.870D-02-0.686D-02-0.756D-01-0.885D-01 0.469D+00
 Coeff:      0.690D+00
 Gap=     0.308 Goal=   None    Shift=    0.000
 RMSDP=6.55D-08 MaxDP=4.02D-06 DE=-8.44D-11 OVMax= 1.74D-06

 Cycle  14  Pass 1  IDiag  1:
 RMSU=  3.54D-08    CP:  5.59D-01  1.63D+00  6.57D-01  8.78D-01  1.21D+00
                    CP:  1.10D+00  1.18D+00  1.16D+00  1.27D+00  1.25D+00
                    CP:  1.34D+00  1.42D+00  1.15D+00
 E= -460.887914082406     Delta-E=       -0.000000000002 Rises=F Damp=F
 DIIS: error= 9.55D-08 at cycle  14 NSaved=  14.
 NSaved=14 IEnMin=14 EnMin= -460.887914082406     IErMin=14 ErrMin= 9.55D-08
 ErrMax= 9.55D-08  0.00D+00 EMaxC= 1.00D-01 BMatC= 5.48D-13 BMatP= 4.42D-12
 IDIUse=1 WtCom= 1.00D+00 WtEn= 0.00D+00
 Coeff-Com: -0.321D-05 0.683D-05 0.603D-05 0.408D-05-0.277D-04-0.147D-03
 Coeff-Com: -0.628D-03 0.579D-03 0.622D-02 0.309D-02-0.215D-01-0.127D+00
 Coeff-Com:  0.159D+00 0.980D+00
 Coeff:     -0.321D-05 0.683D-05 0.603D-05 0.408D-05-0.277D-04-0.147D-03
 Coeff:     -0.628D-03 0.579D-03 0.622D-02 0.309D-02-0.215D-01-0.127D+00
 Coeff:      0.159D+00 0.980D+00
 Gap=     0.308 Goal=   None    Shift=    0.000
 RMSDP=5.10D-08 MaxDP=3.29D-06 DE=-1.82D-12 OVMax= 1.38D-06

 Cycle  15  Pass 1  IDiag  1:
 RMSU=  2.35D-08    CP:  5.59D-01  1.63D+00  6.57D-01  8.78D-01  1.21D+00
                    CP:  1.10D+00  1.18D+00  1.15D+00  1.27D+00  1.25D+00
                    CP:  1.33D+00  1.42D+00  1.38D+00  1.19D+00
 E= -460.887914082414     Delta-E=       -0.000000000007 Rises=F Damp=F
 DIIS: error= 2.81D-08 at cycle  15 NSaved=  15.
 NSaved=15 IEnMin=15 EnMin= -460.887914082414     IErMin=15 ErrMin= 2.81D-08
 ErrMax= 2.81D-08  0.00D+00 EMaxC= 1.00D-01 BMatC= 1.07D-13 BMatP= 5.48D-13
 IDIUse=1 WtCom= 1.00D+00 WtEn= 0.00D+00
 Coeff-Com:  0.129D-06-0.362D-06 0.443D-06 0.811D-05 0.638D-04 0.170D-04
 Coeff-Com: -0.702D-03-0.742D-03 0.251D-02 0.927D-02 0.477D-02-0.949D-01
 Coeff-Com: -0.496D-01 0.324D+00 0.805D+00
 Coeff:      0.129D-06-0.362D-06 0.443D-06 0.811D-05 0.638D-04 0.170D-04
 Coeff:     -0.702D-03-0.742D-03 0.251D-02 0.927D-02 0.477D-02-0.949D-01
 Coeff:     -0.496D-01 0.324D+00 0.805D+00
 Gap=     0.308 Goal=   None    Shift=    0.000
 RMSDP=1.66D-08 MaxDP=1.33D-06 DE=-7.28D-12 OVMax= 4.27D-07

 Cycle  16  Pass 1  IDiag  1:
 RMSU=  7.42D-09    CP:  5.59D-01  1.63D+00  6.57D-01  8.78D-01  1.21D+00
                    CP:  1.10D+00  1.18D+00  1.15D+00  1.27D+00  1.25D+00
                    CP:  1.32D+00  1.42D+00  1.45D+00  1.31D+00  1.31D+00
 E= -460.887914082419     Delta-E=       -0.000000000005 Rises=F Damp=F
 DIIS: error= 1.55D-08 at cycle  16 NSaved=  16.
 NSaved=16 IEnMin=16 EnMin= -460.887914082419     IErMin=16 ErrMin= 1.55D-08
 ErrMax= 1.55D-08  0.00D+00 EMaxC= 1.00D-01 BMatC= 1.98D-14 BMatP= 1.07D-13
 IDIUse=1 WtCom= 1.00D+00 WtEn= 0.00D+00
 Coeff-Com:  0.606D-06-0.132D-05-0.998D-06 0.149D-05 0.251D-04 0.391D-04
 Coeff-Com: -0.964D-04-0.329D-03-0.475D-03 0.235D-02 0.761D-02-0.533D-02
 Coeff-Com: -0.634D-01-0.991D-01 0.261D+00 0.898D+00
 Coeff:      0.606D-06-0.132D-05-0.998D-06 0.149D-05 0.251D-04 0.391D-04
 Coeff:     -0.964D-04-0.329D-03-0.475D-03 0.235D-02 0.761D-02-0.533D-02
 Coeff:     -0.634D-01-0.991D-01 0.261D+00 0.898D+00
 Gap=     0.308 Goal=   None    Shift=    0.000
 RMSDP=8.44D-09 MaxDP=7.87D-07 DE=-5.46D-12 OVMax= 2.18D-07

 SCF Done:  E(RwB97XD) =  -460.887914082     A.U. after   16 cycles
            NFock= 16  Conv=0.84D-08     -V/T= 1.9983
 KE= 4.616818112518D+02 PE=-2.200761076009D+03 EE= 7.150507940703D+02
 Leave Link  502 at Mon Nov 21 14:56:55 2022, MaxMem= 16106127360 cpu:             759.3 elap:              23.9
 (Enter /opt/ap/G16/B01/g16/l601.exe)
 Copying SCF densities to generalized density rwf, IOpCl= 0 IROHF=0.

 **********************************************************************

            Population analysis using the SCF Density.

 **********************************************************************

 Orbital symmetries:
       Occupied  (A) (A) (A) (A) (A) (A) (A) (A) (A) (A) (A) (A)
                 (A) (A) (A) (A) (A) (A) (A) (A) (A) (A) (A) (A)
                 (A) (A) (A) (A) (A) (A) (A) (A) (A) (A) (A) (A)
                 (A) (A)
       Virtual   (A) (A) (A) (A) (A) (A) (A) (A) (A) (A) (A) (A)
                 (A) (A) (A) (A) (A) (A) (A) (A) (A) (A) (A) (A)
                 (A) (A) (A) (A) (A) (A) (A) (A) (A) (A) (A) (A)
                 (A) (A) (A) (A) (A) (A) (A) (A) (A) (A) (A) (A)
                 (A) (A) (A) (A) (A) (A) (A) (A) (A) (A) (A) (A)
                 (A) (A) (A) (A) (A) (A) (A) (A) (A) (A) (A) (A)
                 (A) (A) (A) (A) (A) (A) (A) (A) (A) (A) (A) (A)
                 (A) (A) (A) (A) (A) (A) (A) (A) (A) (A) (A) (A)
                 (A) (A) (A) (A) (A) (A) (A) (A) (A) (A) (A) (A)
                 (A) (A) (A) (A) (A) (A) (A) (A) (A) (A) (A) (A)
                 (A) (A) (A) (A) (A) (A) (A) (A) (A) (A) (A) (A)
                 (A) (A) (A) (A) (A) (A) (A) (A) (A) (A) (A) (A)
                 (A) (A) (A) (A) (A) (A) (A) (A) (A) (A) (A) (A)
                 (A) (A) (A) (A) (A) (A) (A) (A) (A) (A) (A) (A)
                 (A) (A) (A) (A) (A) (A) (A) (A) (A) (A) (A) (A)
                 (A) (A) (A) (A) (A) (A) (A) (A) (A) (A) (A) (A)
                 (A) (A) (A) (A) (A) (A) (A) (A) (A) (A) (A) (A)
                 (A) (A) (A) (A) (A) (A) (A) (A) (A) (A) (A) (A)
                 (A) (A) (A) (A) (A) (A) (A) (A) (A) (A) (A) (A)
                 (A) (A) (A) (A) (A) (A) (A) (A) (A) (A) (A) (A)
                 (A) (A) (A) (A) (A) (A) (A) (A) (A) (A) (A) (A)
                 (A) (A) (A) (A) (A) (A)
 The electronic state is 1-A.
 Alpha  occ. eigenvalues --  -19.25900 -10.34901 -10.29914 -10.29759 -10.27802
 Alpha  occ. eigenvalues --  -10.27338 -10.27281 -10.27186 -10.27002 -10.26800
 Alpha  occ. eigenvalues --  -10.26701  -1.19524  -0.98936  -0.94402  -0.88645
 Alpha  occ. eigenvalues --   -0.86383  -0.84470  -0.75364  -0.73711  -0.72465
 Alpha  occ. eigenvalues --   -0.67308  -0.64652  -0.61585  -0.60407  -0.55716
 Alpha  occ. eigenvalues --   -0.54951  -0.52769  -0.52441  -0.51530  -0.48627
 Alpha  occ. eigenvalues --   -0.47866  -0.45250  -0.43577  -0.42405  -0.40863
 Alpha  occ. eigenvalues --   -0.35993  -0.32843  -0.29161
 Alpha virt. eigenvalues --    0.01650   0.03921   0.04342   0.04698   0.04980
 Alpha virt. eigenvalues --    0.06278   0.06505   0.08343   0.08732   0.09084
 Alpha virt. eigenvalues --    0.10280   0.11507   0.12096   0.12989   0.13830
 Alpha virt. eigenvalues --    0.14975   0.15052   0.15534   0.15968   0.16355
 Alpha virt. eigenvalues --    0.16645   0.17157   0.17507   0.17901   0.18350
 Alpha virt. eigenvalues --    0.18703   0.19037   0.19245   0.20018   0.20677
 Alpha virt. eigenvalues --    0.21739   0.21833   0.22385   0.22566   0.22941
 Alpha virt. eigenvalues --    0.24614   0.25765   0.26017   0.26179   0.26966
 Alpha virt. eigenvalues --    0.27432   0.28776   0.29087   0.29523   0.30038
 Alpha virt. eigenvalues --    0.31015   0.31610   0.31911   0.32438   0.32762
 Alpha virt. eigenvalues --    0.33911   0.34652   0.34917   0.35274   0.35564
 Alpha virt. eigenvalues --    0.36056   0.36869   0.37759   0.38705   0.39324
 Alpha virt. eigenvalues --    0.39989   0.40976   0.41691   0.42609   0.43223
 Alpha virt. eigenvalues --    0.44064   0.44580   0.47134   0.47326   0.47960
 Alpha virt. eigenvalues --    0.50550   0.57220   0.58190   0.59894   0.61159
 Alpha virt. eigenvalues --    0.61896   0.62437   0.65096   0.65787   0.65875
 Alpha virt. eigenvalues --    0.66682   0.67486   0.68010   0.68505   0.70169
 Alpha virt. eigenvalues --    0.70482   0.70837   0.71650   0.71959   0.72628
 Alpha virt. eigenvalues --    0.74349   0.75469   0.77005   0.78737   0.80843
 Alpha virt. eigenvalues --    0.82002   0.82821   0.84322   0.86475   0.87364
 Alpha virt. eigenvalues --    0.89210   0.90181   0.91281   0.92297   0.93190
 Alpha virt. eigenvalues --    0.95557   0.96173   0.97130   0.99451   1.00514
 Alpha virt. eigenvalues --    1.01704   1.02078   1.04246   1.04808   1.05889
 Alpha virt. eigenvalues --    1.06503   1.06545   1.09677   1.11971   1.12427
 Alpha virt. eigenvalues --    1.13883   1.14457   1.18648   1.19489   1.20011
 Alpha virt. eigenvalues --    1.20514   1.22895   1.23530   1.24056   1.24326
 Alpha virt. eigenvalues --    1.27762   1.32926   1.35085   1.42744   1.46056
 Alpha virt. eigenvalues --    1.48587   1.55740   1.57378   1.58600   1.59453
 Alpha virt. eigenvalues --    1.61570   1.62460   1.63010   1.64772   1.69482
 Alpha virt. eigenvalues --    1.69977   1.70681   1.70951   1.73378   1.75612
 Alpha virt. eigenvalues --    1.76613   1.79318   1.80850   1.81127   1.84057
 Alpha virt. eigenvalues --    1.89685   1.90185   1.91947   1.92499   1.93359
 Alpha virt. eigenvalues --    1.95775   1.97321   1.99466   1.99795   2.03295
 Alpha virt. eigenvalues --    2.03964   2.05423   2.07760   2.08698   2.09371
 Alpha virt. eigenvalues --    2.10076   2.11772   2.12938   2.16108   2.19439
 Alpha virt. eigenvalues --    2.24409   2.25929   2.28212   2.30614   2.34634
 Alpha virt. eigenvalues --    2.37115   2.39356   2.41862   2.47362   2.51041
 Alpha virt. eigenvalues --    2.53005   2.53215   2.53456   2.56470   2.57515
 Alpha virt. eigenvalues --    2.66588   2.67972   2.72482   2.73375   2.76142
 Alpha virt. eigenvalues --    2.80597   2.81337   2.84165   2.88393   2.88839
 Alpha virt. eigenvalues --    2.92843   2.93769   2.95618   2.98931   3.01363
 Alpha virt. eigenvalues --    3.02717   3.03642   3.04413   3.06585   3.07160
 Alpha virt. eigenvalues --    3.08406   3.11655   3.17655   3.18444   3.19439
 Alpha virt. eigenvalues --    3.22118   3.23752   3.27643   3.33546   3.35308
 Alpha virt. eigenvalues --    3.38624   3.42296   3.48328   3.48704   3.53169
 Alpha virt. eigenvalues --    3.55765   3.60849   3.73962   3.77065   3.78999
 Alpha virt. eigenvalues --    3.83940   3.88790   3.90560   3.99628   4.15116
 Alpha virt. eigenvalues --    4.27967   4.43366   4.44497   4.45785   4.52168
 Alpha virt. eigenvalues --    4.57330   4.61873   4.94217   4.97306   5.22238
 Alpha virt. eigenvalues --    5.60760   6.17369  23.80149  24.06437  24.15458
 Alpha virt. eigenvalues --   24.17319  24.21955  24.26192  24.41184  24.44182
 Alpha virt. eigenvalues --   24.51697  24.53357  50.19190
          Condensed to atoms (all electrons):
               1          2          3          4          5          6
     1  C   24.142814  -5.982533  -3.460604  -4.277457  -1.763310  -0.411358
     2  C   -5.982533  21.868568  -2.221731   0.373830  -3.045231  -4.893684
     3  C   -3.460604  -2.221731  10.377116   2.101302   0.020457  -0.408127
     4  C   -4.277457   0.373830   2.101302   9.029204  -0.319284  -0.707901
     5  C   -1.763310  -3.045231   0.020457  -0.319284   9.203884   2.357270
     6  C   -0.411358  -4.893684  -0.408127  -0.707901   2.357270  11.498848
     7  C   -1.708591   0.312596   0.384116  -0.536723   0.071571  -0.103864
     8  O    0.042830  -0.209081   0.219969  -0.024521  -0.002848   0.193431
     9  C    1.152375  -0.835775  -0.810053   0.056352  -0.040939   0.395948
    10  H   -0.146790   0.071513   0.055883   0.492759   0.020023  -0.058061
    11  C   -0.457699   0.137898   0.303057  -0.032527   0.160164  -1.184161
    12  H   -0.003670  -0.071838  -0.056735   0.010124   0.495449   0.078207
    13  C   -1.373461   0.885733  -0.276936   0.303034  -0.951360  -1.066486
    14  H   -0.151977  -0.026012  -0.068864  -0.007310   0.028800   0.401969
    15  H   -0.106479   0.015563  -0.063813   0.029980  -0.030525  -0.003633
    16  H   -0.235173  -0.001605   0.122886   0.016086  -0.017732  -0.018168
    17  H    0.132306  -0.048896  -0.013984  -0.123861   0.023330   0.010262
    18  H   -0.024320   0.037315  -0.010382   0.021003  -0.059161  -0.033501
    19  H    0.044206  -0.036979   0.017853  -0.018322  -0.021771  -0.038097
               7          8          9         10         11         12
     1  C   -1.708591   0.042830   1.152375  -0.146790  -0.457699  -0.003670
     2  C    0.312596  -0.209081  -0.835775   0.071513   0.137898  -0.071838
     3  C    0.384116   0.219969  -0.810053   0.055883   0.303057  -0.056735
     4  C   -0.536723  -0.024521   0.056352   0.492759  -0.032527   0.010124
     5  C    0.071571  -0.002848  -0.040939   0.020023   0.160164   0.495449
     6  C   -0.103864   0.193431   0.395948  -0.058061  -1.184161   0.078207
     7  C    7.270758  -0.375848   0.064512   0.030199   0.068665  -0.009432
     8  O   -0.375848   8.041774   0.039875  -0.000895   0.000652   0.000725
     9  C    0.064512   0.039875   6.110256  -0.126628  -0.308930   0.055550
    10  H    0.030199  -0.000895  -0.126628   0.500616   0.046997  -0.003520
    11  C    0.068665   0.000652  -0.308930   0.046997   6.483667  -0.127921
    12  H   -0.009432   0.000725   0.055550  -0.003520  -0.127921   0.505071
    13  C   -0.117208   0.114630   0.009642  -0.000528   0.684016  -0.002583
    14  H    0.005889   0.016328  -0.001921   0.000587   0.027825   0.000629
    15  H    0.574898  -0.039444  -0.077835   0.003360  -0.000363  -0.001022
    16  H    0.140037   0.234937  -0.009444   0.000841   0.004700  -0.000302
    17  H   -0.125407   0.003714   0.484564  -0.021546   0.000142   0.002174
    18  H   -0.002389  -0.000083   0.001664   0.000924   0.468232  -0.018873
    19  H    0.007761   0.000264  -0.001730  -0.000446  -0.055383   0.000616
              13         14         15         16         17         18
     1  C   -1.373461  -0.151977  -0.106479  -0.235173   0.132306  -0.024320
     2  C    0.885733  -0.026012   0.015563  -0.001605  -0.048896   0.037315
     3  C   -0.276936  -0.068864  -0.063813   0.122886  -0.013984  -0.010382
     4  C    0.303034  -0.007310   0.029980   0.016086  -0.123861   0.021003
     5  C   -0.951360   0.028800  -0.030525  -0.017732   0.023330  -0.059161
     6  C   -1.066486   0.401969  -0.003633  -0.018168   0.010262  -0.033501
     7  C   -0.117208   0.005889   0.574898   0.140037  -0.125407  -0.002389
     8  O    0.114630   0.016328  -0.039444   0.234937   0.003714  -0.000083
     9  C    0.009642  -0.001921  -0.077835  -0.009444   0.484564   0.001664
    10  H   -0.000528   0.000587   0.003360   0.000841  -0.021546   0.000924
    11  C    0.684016   0.027825  -0.000363   0.004700   0.000142   0.468232
    12  H   -0.002583   0.000629  -0.001022  -0.000302   0.002174  -0.018873
    13  C    7.570987   0.128044   0.016342   0.024026  -0.005218  -0.051621
    14  H    0.128044   0.588601   0.002200  -0.004550  -0.000410   0.000007
    15  H    0.016342   0.002200   0.494793   0.005507  -0.022389  -0.000018
    16  H    0.024026  -0.004550   0.005507   0.473958  -0.001448   0.000002
    17  H   -0.005218  -0.000410  -0.022389  -0.001448   0.513469  -0.000027
    18  H   -0.051621   0.000007  -0.000018   0.000002  -0.000027   0.504469
    19  H    0.443152  -0.020765   0.000051   0.000615  -0.000049  -0.013282
              19
     1  C    0.044206
     2  C   -0.036979
     3  C    0.017853
     4  C   -0.018322
     5  C   -0.021771
     6  C   -0.038097
     7  C    0.007761
     8  O    0.000264
     9  C   -0.001730
    10  H   -0.000446
    11  C   -0.055383
    12  H    0.000616
    13  C    0.443152
    14  H   -0.020765
    15  H    0.000051
    16  H    0.000615
    17  H   -0.000049
    18  H   -0.013282
    19  H    0.501974
 Mulliken charges:
               1
     1  C    0.588889
     2  C   -0.329651
     3  C   -0.211409
     4  C   -0.385767
     5  C   -0.128787
     6  C   -0.008894
     7  C    0.048460
     8  O   -0.256409
     9  C   -0.157484
    10  H    0.134712
    11  C   -0.219033
    12  H    0.147349
    13  C   -0.334203
    14  H    0.080931
    15  H    0.202825
    16  H    0.264826
    17  H    0.193275
    18  H    0.180041
    19  H    0.190330
 Sum of Mulliken charges =  -0.00000
 Mulliken charges with hydrogens summed into heavy atoms:
               1
     1  C    0.588889
     2  C   -0.329651
     3  C   -0.211409
     4  C   -0.251055
     5  C    0.018562
     6  C    0.072037
     7  C    0.251285
     8  O    0.008417
     9  C    0.035790
    11  C   -0.038992
    13  C   -0.143873
 Electronic spatial extent (au):  <R**2>=           1502.7016
 Charge=             -0.0000 electrons
 Dipole moment (field-independent basis, Debye):
    X=             -1.1225    Y=             -0.5783    Z=              0.9594  Tot=              1.5859
 Quadrupole moment (field-independent basis, Debye-Ang):
   XX=            -57.2355   YY=            -56.8357   ZZ=            -66.9775
   XY=             -3.7547   XZ=              1.1651   YZ=              2.9133
 Traceless Quadrupole moment (field-independent basis, Debye-Ang):
   XX=              3.1140   YY=              3.5139   ZZ=             -6.6279
   XY=             -3.7547   XZ=              1.1651   YZ=              2.9133
 Octapole moment (field-independent basis, Debye-Ang**2):
  XXX=             -4.5679  YYY=              4.4984  ZZZ=              0.7869  XYY=             -7.2865
  XXY=             -8.6083  XXZ=              0.8643  XZZ=              4.2402  YZZ=              6.5943
  YYZ=              8.3883  XYZ=              3.5689
 Hexadecapole moment (field-independent basis, Debye-Ang**3):
 XXXX=          -1102.1975 YYYY=           -648.0286 ZZZZ=            -77.1483 XXXY=            -20.8875
 XXXZ=              0.6660 YYYX=            -10.2090 YYYZ=             22.9317 ZZZX=              1.1197
 ZZZY=              2.9156 XXYY=           -316.3675 XXZZ=           -235.5533 YYZZ=           -137.1068
 XXYZ=              3.3608 YYXZ=             10.1651 ZZXY=              9.2228
 N-N= 5.631405566043D+02 E-N=-2.200761076289D+03  KE= 4.616818112518D+02
 No NMR shielding tensors so no spin-rotation constants.
 Leave Link  601 at Mon Nov 21 14:56:56 2022, MaxMem= 16106127360 cpu:               3.9 elap:               0.1
 (Enter /opt/ap/G16/B01/g16/l9999.exe)
 1\1\GINC-N11\SP\RwB97XD\6-311++G(d,p)\C10H8O1\ROOT\21-Nov-2022\0\\#P w
 B97XD/6-311++G(d,p) scf=maxcycle=512\\_conf046.gjf nmol_natom 1_19\\0,
 1\C\C,1,1.40879539\C,1,1.42289824,2,117.24956717\C,2,1.41887971,1,119.
 07594714,3,0.16510261,0\C,2,1.42227783,1,117.46262303,3,-179.44443577,
 0\C,1,1.42440336,2,119.00293897,4,179.73740031,0\C,3,1.35510367,1,122.
 33979448,2,-0.36120568,0\O,3,1.37615658,1,115.04370777,2,-179.5931286,
 0\C,4,1.34577659,2,121.30210156,1,0.17277764,0\H,4,0.93023405,2,119.33
 469462,1,-179.75965297,0\C,5,1.34486794,2,122.06073707,1,-0.32265162,0
 \H,5,0.92957893,2,118.96449269,1,179.64671542,0\C,6,1.35980576,1,121.1
 112438,2,0.11625163,0\H,6,0.92999796,1,119.43671105,2,-179.87270235,0\
 H,7,0.93052813,3,120.28038366,1,-179.76477098,0\H,8,0.81991994,3,109.4
 8785721,1,50.,0\H,9,0.93027331,4,119.71917791,2,179.60144151,0\H,11,0.
 92987565,5,119.70372857,2,-179.69197286,0\H,13,0.93032717,6,120.145246
 92,1,179.85241379,0\\Version=ES64L-G16RevB.01\State=1-A\HF=-460.887914
 1\RMSD=8.436e-09\Dipole=-0.3832687,0.3714337,0.32315\Quadrupole=3.5184
 974,-4.8682609,1.3497635,0.3897459,2.6053168,-2.3616926\PG=C01 [X(C10H
 8O1)]\\@


 THE HURRIEDER I GO, THE BEHINDER I GET.
 Job cpu time:       0 days  0 hours 13 minutes 20.6 seconds.
 Elapsed time:       0 days  0 hours  0 minutes 25.3 seconds.
 File lengths (MBytes):  RWF=     51 Int=      0 D2E=      0 Chk=      6 Scr=      1
 Normal termination of Gaussian 16 at Mon Nov 21 14:56:56 2022.
