 Entering Gaussian System, Link 0=g16
 Input=_conf012.gjf
 Output=_conf012.log
 Initial command:
 /opt/ap/G16/B01/g16/l1.exe "/tmp2/scr/Gau-4257.inp" -scrdir="/tmp2/scr/"
 Entering Link 1 = /opt/ap/G16/B01/g16/l1.exe PID=      4258.
  
 Copyright (c) 1988-2017, Gaussian, Inc.  All Rights Reserved.
  
 This is part of the Gaussian(R) 16 program.  It is based on
 the Gaussian(R) 09 system (copyright 2009, Gaussian, Inc.),
 the Gaussian(R) 03 system (copyright 2003, Gaussian, Inc.),
 the Gaussian(R) 98 system (copyright 1998, Gaussian, Inc.),
 the Gaussian(R) 94 system (copyright 1995, Gaussian, Inc.),
 the Gaussian 92(TM) system (copyright 1992, Gaussian, Inc.),
 the Gaussian 90(TM) system (copyright 1990, Gaussian, Inc.),
 the Gaussian 88(TM) system (copyright 1988, Gaussian, Inc.),
 the Gaussian 86(TM) system (copyright 1986, Carnegie Mellon
 University), and the Gaussian 82(TM) system (copyright 1983,
 Carnegie Mellon University). Gaussian is a federally registered
 trademark of Gaussian, Inc.
  
 This software contains proprietary and confidential information,
 including trade secrets, belonging to Gaussian, Inc.
  
 This software is provided under written license and may be
 used, copied, transmitted, or stored only in accord with that
 written license.
  
 The following legend is applicable only to US Government
 contracts under FAR:
  
                    RESTRICTED RIGHTS LEGEND
  
 Use, reproduction and disclosure by the US Government is
 subject to restrictions as set forth in subparagraphs (a)
 and (c) of the Commercial Computer Software - Restricted
 Rights clause in FAR 52.227-19.
  
 Gaussian, Inc.
 340 Quinnipiac St., Bldg. 40, Wallingford CT 06492
  
  
 ---------------------------------------------------------------
 Warning -- This program may not be used in any manner that
 competes with the business of Gaussian, Inc. or will provide
 assistance to any competitor of Gaussian, Inc.  The licensee
 of this program is prohibited from giving any competitor of
 Gaussian, Inc. access to this program.  By using this program,
 the user acknowledges that Gaussian, Inc. is engaged in the
 business of creating and licensing software in the field of
 computational chemistry and represents and warrants to the
 licensee that it is not a competitor of Gaussian, Inc. and that
 it will not use this program in any manner prohibited above.
 ---------------------------------------------------------------
  

 Cite this work as:
 Gaussian 16, Revision B.01,
 M. J. Frisch, G. W. Trucks, H. B. Schlegel, G. E. Scuseria, 
 M. A. Robb, J. R. Cheeseman, G. Scalmani, V. Barone, 
 G. A. Petersson, H. Nakatsuji, X. Li, M. Caricato, A. V. Marenich, 
 J. Bloino, B. G. Janesko, R. Gomperts, B. Mennucci, H. P. Hratchian, 
 J. V. Ortiz, A. F. Izmaylov, J. L. Sonnenberg, D. Williams-Young, 
 F. Ding, F. Lipparini, F. Egidi, J. Goings, B. Peng, A. Petrone, 
 T. Henderson, D. Ranasinghe, V. G. Zakrzewski, J. Gao, N. Rega, 
 G. Zheng, W. Liang, M. Hada, M. Ehara, K. Toyota, R. Fukuda, 
 J. Hasegawa, M. Ishida, T. Nakajima, Y. Honda, O. Kitao, H. Nakai, 
 T. Vreven, K. Throssell, J. A. Montgomery, Jr., J. E. Peralta, 
 F. Ogliaro, M. J. Bearpark, J. J. Heyd, E. N. Brothers, K. N. Kudin, 
 V. N. Staroverov, T. A. Keith, R. Kobayashi, J. Normand, 
 K. Raghavachari, A. P. Rendell, J. C. Burant, S. S. Iyengar, 
 J. Tomasi, M. Cossi, J. M. Millam, M. Klene, C. Adamo, R. Cammi, 
 J. W. Ochterski, R. L. Martin, K. Morokuma, O. Farkas, 
 J. B. Foresman, and D. J. Fox, Gaussian, Inc., Wallingford CT, 2016.
 
 ******************************************
 Gaussian 16:  ES64L-G16RevB.01 20-Dec-2017
                21-Nov-2022 
 ******************************************
 %nprocshared=32
 Will use up to   32 processors via shared memory.
 %mem=120GB
 %chk=_conf012.chk
 ----------------------------------------
 #P wB97XD/6-311++G(d,p) scf=maxcycle=512
 ----------------------------------------
 1/38=1,172=1/1;
 2/12=2,17=6,18=5,40=1/2;
 3/5=4,6=6,7=1111,11=2,25=1,30=1,74=-58/1,2,3;
 4//1;
 5/5=2,7=512,38=5/2;
 6/7=2,8=2,9=2,10=2,28=1/1;
 99/5=1,9=1/99;
 Leave Link    1 at Mon Nov 21 14:52:46 2022, MaxMem= 16106127360 cpu:               1.9 elap:               0.1
 (Enter /opt/ap/G16/B01/g16/l101.exe)
 ----------------------------
 _conf012.gjf nmol_natom 1_19
 ----------------------------
 Symbolic Z-matrix:
 Charge =  0 Multiplicity = 1
 C
 C                    1     1.4088 
 C                    1     1.4229   2     117.24957 
 C                    2     1.41888  1     119.07595  3     0.1651   0
 C                    2     1.42228  1     117.46262  3    -179.44444  0
 C                    1     1.4244   2     119.00294  4     179.7374  0
 C                    3     1.3551   1     122.33979  2    -0.36121  0
 O                    3     1.37616  1     115.04371  2    -179.59313  0
 C                    4     1.34578  2     121.3021  1     0.17278  0
 H                    4     0.93023  2     119.33469  1    -179.75965  0
 C                    5     1.34487  2     122.06074  1    -0.32265  0
 H                    5     0.92958  2     118.96449  1     179.64672  0
 C                    6     1.35981  1     121.11124  2     0.11625  0
 H                    6     0.93     1     119.43671  2    -179.8727  0
 H                    7     0.93053  3     120.28038  1    -179.76477  0
 H                    8     0.81992  3     109.48786  1    -120.     0
 H                    9     0.93027  4     119.71918  2     179.60144  0
 H                    11    0.92988  5     119.70373  2    -179.69197  0
 H                    13    0.93033  6     120.14525  1     179.85241  0
 
 ITRead=  0  0  0  0  0  0  0  0  0  0  0  0  0  0  0  0  0  0  0
 MicOpt= -1 -1 -1 -1 -1 -1 -1 -1 -1 -1 -1 -1 -1 -1 -1 -1 -1 -1 -1
 NAtoms=     19 NQM=       19 NQMF=       0 NMMI=      0 NMMIF=      0
                NMic=       0 NMicF=      0.
                    Isotopes and Nuclear Properties:
 (Nuclear quadrupole moments (NQMom) in fm**2, nuclear magnetic moments (NMagM)
  in nuclear magnetons)

  Atom         1           2           3           4           5           6           7           8           9          10
 IAtWgt=          12          12          12          12          12          12          12          16          12           1
 AtmWgt=  12.0000000  12.0000000  12.0000000  12.0000000  12.0000000  12.0000000  12.0000000  15.9949146  12.0000000   1.0078250
 NucSpn=           0           0           0           0           0           0           0           0           0           1
 AtZEff=  -0.0000000  -0.0000000  -0.0000000  -0.0000000  -0.0000000  -0.0000000  -0.0000000  -0.0000000  -0.0000000  -0.0000000
 NQMom=    0.0000000   0.0000000   0.0000000   0.0000000   0.0000000   0.0000000   0.0000000   0.0000000   0.0000000   0.0000000
 NMagM=    0.0000000   0.0000000   0.0000000   0.0000000   0.0000000   0.0000000   0.0000000   0.0000000   0.0000000   2.7928460
 AtZNuc=   6.0000000   6.0000000   6.0000000   6.0000000   6.0000000   6.0000000   6.0000000   8.0000000   6.0000000   1.0000000

  Atom        11          12          13          14          15          16          17          18          19
 IAtWgt=          12           1          12           1           1           1           1           1           1
 AtmWgt=  12.0000000   1.0078250  12.0000000   1.0078250   1.0078250   1.0078250   1.0078250   1.0078250   1.0078250
 NucSpn=           0           1           0           1           1           1           1           1           1
 AtZEff=  -0.0000000  -0.0000000  -0.0000000  -0.0000000  -0.0000000  -0.0000000  -0.0000000  -0.0000000  -0.0000000
 NQMom=    0.0000000   0.0000000   0.0000000   0.0000000   0.0000000   0.0000000   0.0000000   0.0000000   0.0000000
 NMagM=    0.0000000   2.7928460   0.0000000   2.7928460   2.7928460   2.7928460   2.7928460   2.7928460   2.7928460
 AtZNuc=   6.0000000   1.0000000   6.0000000   1.0000000   1.0000000   1.0000000   1.0000000   1.0000000   1.0000000
 Leave Link  101 at Mon Nov 21 14:52:47 2022, MaxMem= 16106127360 cpu:               6.4 elap:               0.2
 (Enter /opt/ap/G16/B01/g16/l202.exe)
                          Input orientation:                          
 ---------------------------------------------------------------------
 Center     Atomic      Atomic             Coordinates (Angstroms)
 Number     Number       Type             X           Y           Z
 ---------------------------------------------------------------------
      1          6           0        0.000000    0.000000    0.000000
      2          6           0        0.000000    0.000000    1.408795
      3          6           0        1.264986    0.000000   -0.651498
      4          6           0        1.240062    0.003573    2.098326
      5          6           0       -1.261945   -0.012237    2.064707
      6          6           0       -1.245741   -0.009299   -0.690628
      7          6           0        2.433644    0.007218    0.034427
      8          8           0        1.212032    0.008854   -2.026607
      9          6           0        2.409936    0.010412    1.433147
     10          1           0        1.244276    0.000184    3.028545
     11          6           0       -2.421000   -0.017057    1.382624
     12          1           0       -1.286266   -0.017488    2.993953
     13          6           0       -2.424704   -0.015738   -0.013076
     14          1           0       -1.252769   -0.011151   -1.620598
     15          1           0        3.245045    0.010306   -0.421097
     16          1           0        1.585516   -0.659925   -2.319035
     17          1           0        3.210137    0.018260    1.907515
     18          1           0       -3.227740   -0.020753    1.845035
     19          1           0       -3.230632   -0.019714   -0.477804
 ---------------------------------------------------------------------
                    Distance matrix (angstroms):
                    1          2          3          4          5
     1  C    0.000000
     2  C    1.408795   0.000000
     3  C    1.422898   2.417643   0.000000
     4  C    2.437363   1.418880   2.749940   0.000000
     5  C    2.419849   1.422278   3.709892   2.502283   0.000000
     6  C    1.424403   2.441216   2.511049   3.735994   2.755385
     7  C    2.433898   2.794917   1.355104   2.384184   4.216609
     8  O    2.361406   3.642951   1.376157   4.125032   4.781198
     9  C    2.803892   2.410081   2.378396   1.345777   3.725867
    10  H    3.274188   2.042501   3.680101   0.930234   2.685197
    11  C    2.788042   2.421201   4.210040   3.730420   1.344868
    12  H    3.258610   2.041448   4.449551   2.680471   0.929579
    13  C    2.424790   2.810899   3.744548   4.229527   2.381009
    14  H    2.048388   3.278228   2.697845   4.477144   3.685317
    15  H    3.272269   3.725443   1.993445   3.219859   5.147104
    16  H    2.885704   4.104398   1.821790   4.480251   5.267327
    17  H    3.734157   3.248697   3.214420   1.979348   4.474947
    18  H    3.717915   3.257153   5.139815   4.475043   1.978050
    19  H    3.265834   3.741207   4.499015   5.159854   3.215610
                    6          7          8          9         10
     6  C    0.000000
     7  C    3.750180   0.000000
     8  O    2.797466   2.395871   0.000000
     9  C    4.227858   1.398925   3.661267   0.000000
    10  H    4.475771   3.221706   5.055262   1.975895   0.000000
    11  C    2.383205   5.038431   4.982213   4.831278   4.017910
    12  H    3.684813   4.753644   5.607870   4.012331   2.530840
    13  C    1.359806   4.858634   4.157013   5.046383   4.765829
    14  H    0.929998   4.040926   2.498097   4.768777   5.277300
    15  H    4.498910   0.930528   2.590522   2.033624   3.987882
    16  H    3.330321   2.589050   0.819920   3.899730   5.398963
    17  H    5.158096   2.027689   4.412463   0.930273   2.263105
    18  H    3.218391   5.943934   5.890846   5.652788   4.626021
    19  H    1.996295   5.687453   4.704984   5.955556   5.685040
                   11         12         13         14         15
    11  C    0.000000
    12  H    1.970788   0.000000
    13  C    1.395705   3.215317   0.000000
    14  H    3.222443   4.614677   1.989366   0.000000
    15  H    5.946277   5.674162   5.684470   4.655061   0.000000
    16  H    5.492515   6.073525   4.670577   2.994092   2.608719
    17  H    5.655657   4.625934   5.953256   5.689110   2.328887
    18  H    0.929876   2.255958   2.024221   3.988887   6.858080
    19  H    2.028966   3.979153   0.930327   2.284293   6.475995
                   16         17         18         19
    16  H    0.000000
    17  H    4.578543   0.000000
    18  H    6.396519   6.438299   0.000000
    19  H    5.195699   6.868384   2.322841   0.000000
 Stoichiometry    C10H8O
 Framework group  C1[X(C10H8O)]
 Deg. of freedom    51
 Full point group                 C1      NOp   1
 Largest Abelian subgroup         C1      NOp   1
 Largest concise Abelian subgroup C1      NOp   1
                         Standard orientation:                         
 ---------------------------------------------------------------------
 Center     Atomic      Atomic             Coordinates (Angstroms)
 Number     Number       Type             X           Y           Z
 ---------------------------------------------------------------------
      1          6           0        0.030401    0.428744   -0.015798
      2          6           0        0.363646   -0.939980   -0.000061
      3          6           0       -1.352794    0.762501   -0.019921
      4          6           0       -0.678117   -1.903254    0.007160
      5          6           0        1.744928   -1.278603    0.016355
      6          6           0        1.077422    1.394493   -0.017320
      7          6           0       -2.326031   -0.180422   -0.016563
      8          8           0       -1.626617    2.110920   -0.044267
      9          6           0       -1.972134   -1.533787   -0.004191
     10          1           0       -0.462173   -2.807971    0.020951
     11          6           0        2.709744   -0.341711    0.010665
     12          1           0        1.988367   -2.175605    0.031925
     13          6           0        2.383196    1.015150   -0.006253
     14          1           0        0.864269    2.299695   -0.025874
     15          1           0       -3.222156    0.070186   -0.022716
     16          1           0       -2.058821    2.314342    0.622132
     17          1           0       -2.637414   -2.184025   -0.004745
     18          1           0        3.602970   -0.600107    0.017515
     19          1           0        3.056322    1.657333   -0.009479
 ---------------------------------------------------------------------
 Rotational constants (GHZ):           2.0082861           1.1501869           0.7322548
 Leave Link  202 at Mon Nov 21 14:52:47 2022, MaxMem= 16106127360 cpu:               0.7 elap:               0.0
 (Enter /opt/ap/G16/B01/g16/l301.exe)
 Standard basis: 6-311++G(d,p) (5D, 7F)
 Ernie: Thresh=  0.10000D-02 Tol=  0.10000D-05 Strict=F.
 There are   309 symmetry adapted cartesian basis functions of A   symmetry.
 There are   298 symmetry adapted basis functions of A   symmetry.
   298 basis functions,   468 primitive gaussians,   309 cartesian basis functions
    38 alpha electrons       38 beta electrons
       nuclear repulsion energy       562.4900785129 Hartrees.
 IExCor= 4639 DFT=T Ex+Corr=wB97XD ExCW=0 ScaHFX=  1.000000
 ScaDFX=  1.000000  1.000000  1.000000  1.000000 ScalE2=  1.000000  1.000000
 IRadAn=      5 IRanWt=     -1 IRanGd=            0 ICorTp=0 IEmpDi=121
 HFx  wShort=  0.000000 wLong=  0.200000 cFull=  0.222036 cShort=  0.000000 cLong=  0.777964
 DFx  wShort=  0.000000 wLong=  0.200000 cFull=  0.000000 cShort=  0.000000 cLong=  1.000000
 NAtoms=   19 NActive=   19 NUniq=   19 SFac= 1.00D+00 NAtFMM=   60 NAOKFM=F Big=F
 Integral buffers will be    131072 words long.
 Raffenetti 2 integral format.
 Two-electron integral symmetry is turned on.
 R6Disp:  Grimme-D2 Dispersion energy=       -0.0102862869 Hartrees.
 Nuclear repulsion after empirical dispersion term =      562.4797922261 Hartrees.
 Leave Link  301 at Mon Nov 21 14:52:47 2022, MaxMem= 16106127360 cpu:               1.1 elap:               0.0
 (Enter /opt/ap/G16/B01/g16/l302.exe)
 NPDir=0 NMtPBC=     1 NCelOv=     1 NCel=       1 NClECP=     1 NCelD=      1
         NCelK=      1 NCelE2=     1 NClLst=     1 CellRange=     0.0.
 One-electron integrals computed using PRISM.
 One-electron integral symmetry used in STVInt
 NBasis=   298 RedAO= T EigKep=  1.32D-06  NBF=   298
 NBsUse=   296 1.00D-06 EigRej=  6.30D-07 NBFU=   296
 Precomputing XC quadrature grid using
 IXCGrd= 4 IRadAn=           5 IRanWt=          -1 IRanGd=           0 AccXCQ= 0.00D+00.
 Generated NRdTot=       0 NPtTot=           0 NUsed=           0 NTot=          32
 NSgBfM=   309   309   309   309   309 MxSgAt=    19 MxSgA2=    19.
 Leave Link  302 at Mon Nov 21 14:52:47 2022, MaxMem= 16106127360 cpu:               6.6 elap:               0.2
 (Enter /opt/ap/G16/B01/g16/l303.exe)
 DipDrv:  MaxL=1.
 Leave Link  303 at Mon Nov 21 14:52:47 2022, MaxMem= 16106127360 cpu:               1.8 elap:               0.1
 (Enter /opt/ap/G16/B01/g16/l401.exe)
 ExpMin= 3.60D-02 ExpMax= 8.59D+03 ExpMxC= 1.30D+03 IAcc=3 IRadAn=         5 AccDes= 0.00D+00
 Harris functional with IExCor= 4639 and IRadAn=       5 diagonalized for initial guess.
 HarFok:  IExCor= 4639 AccDes= 0.00D+00 IRadAn=         5 IDoV= 1 UseB2=F ITyADJ=14
 ICtDFT=  3500011 ScaDFX=  1.000000  1.000000  1.000000  1.000000
 FoFCou: FMM=F IPFlag=           0 FMFlag=      100000 FMFlg1=           0
         NFxFlg=           0 DoJE=T BraDBF=F KetDBF=T FulRan=T
         wScrn=  0.000000 ICntrl=       500 IOpCl=  0 I1Cent=   200000004 NGrid=           0
         NMat0=    1 NMatS0=      1 NMatT0=    0 NMatD0=    1 NMtDS0=    0 NMtDT0=    0
 Petite list used in FoFCou.
 Harris En= -440.613544815219    
 JPrj=0 DoOrth=F DoCkMO=F.
 Leave Link  401 at Mon Nov 21 14:52:47 2022, MaxMem= 16106127360 cpu:              16.5 elap:               0.5
 (Enter /opt/ap/G16/B01/g16/l502.exe)
 Integral symmetry usage will be decided dynamically.
 Closed shell SCF:
 Using DIIS extrapolation, IDIIS=  1040.
 NGot= 16106127360 LenX= 16105923535 LenY= 16105827613
 Requested convergence on RMS density matrix=1.00D-08 within 512 cycles.
 Requested convergence on MAX density matrix=1.00D-06.
 Requested convergence on             energy=1.00D-06.
 No special actions if energy rises.
 Fock matrices will be formed incrementally for  20 cycles.

 Cycle   1  Pass 1  IDiag  1:
 FoFJK:  IHMeth= 1 ICntrl=       0 DoSepK=T KAlg= 0 I1Cent=           0 FoldK=F
 IRaf=         1 NMat=       1 IRICut=       1 DoRegI=T DoRafI=F ISym2E= 0 IDoP0=0 IntGTp=1.
 FoFCou: FMM=F IPFlag=           0 FMFlag=      100000 FMFlg1=           0
         NFxFlg=           0 DoJE=T BraDBF=F KetDBF=F FulRan=T
         wScrn=  0.000000 ICntrl=       500 IOpCl=  0 I1Cent=           0 NGrid=           0
         NMat0=    1 NMatS0=      1 NMatT0=    0 NMatD0=    1 NMtDS0=    0 NMtDT0=    0
 Symmetry not used in FoFCou.
 E= -460.753999567911    
 DIIS: error= 5.20D-02 at cycle   1 NSaved=   1.
 NSaved= 1 IEnMin= 1 EnMin= -460.753999567911     IErMin= 1 ErrMin= 5.20D-02
 ErrMax= 5.20D-02  0.00D+00 EMaxC= 1.00D-01 BMatC= 9.53D-01 BMatP= 9.53D-01
 IDIUse=3 WtCom= 4.80D-01 WtEn= 5.20D-01
 Coeff-Com:  0.100D+01
 Coeff-En:   0.100D+01
 Coeff:      0.100D+01
 Gap=     0.338 Goal=   None    Shift=    0.000
 GapD=    0.338 DampG=1.000 DampE=0.500 DampFc=0.5000 IDamp=-1.
 Damping current iteration by 5.00D-01
 RMSDP=4.64D-02 MaxDP=4.83D+00              OVMax= 1.26D-01

 Cycle   2  Pass 1  IDiag  1:
 RMSU=  9.20D-03    CP:  8.20D-01
 E= -460.820201368272     Delta-E=       -0.066201800362 Rises=F Damp=T
 DIIS: error= 2.59D-02 at cycle   2 NSaved=   2.
 NSaved= 2 IEnMin= 2 EnMin= -460.820201368272     IErMin= 2 ErrMin= 2.59D-02
 ErrMax= 2.59D-02  0.00D+00 EMaxC= 1.00D-01 BMatC= 2.08D-01 BMatP= 9.53D-01
 IDIUse=3 WtCom= 7.41D-01 WtEn= 2.59D-01
 Coeff-Com: -0.728D+00 0.173D+01
 Coeff-En:   0.000D+00 0.100D+01
 Coeff:     -0.540D+00 0.154D+01
 Gap=     0.340 Goal=   None    Shift=    0.000
 RMSDP=2.42D-02 MaxDP=3.08D+00 DE=-6.62D-02 OVMax= 1.29D-01

 Cycle   3  Pass 1  IDiag  1:
 RMSU=  1.00D-02    CP:  6.43D-01  1.78D+00
 E= -460.862732833088     Delta-E=       -0.042531464816 Rises=F Damp=F
 DIIS: error= 8.71D-03 at cycle   3 NSaved=   3.
 NSaved= 3 IEnMin= 3 EnMin= -460.862732833088     IErMin= 3 ErrMin= 8.71D-03
 ErrMax= 8.71D-03  0.00D+00 EMaxC= 1.00D-01 BMatC= 2.84D-02 BMatP= 2.08D-01
 IDIUse=3 WtCom= 9.13D-01 WtEn= 8.71D-02
 Coeff-Com: -0.372D+00 0.789D+00 0.582D+00
 Coeff-En:   0.000D+00 0.000D+00 0.100D+01
 Coeff:     -0.339D+00 0.721D+00 0.619D+00
 Gap=     0.316 Goal=   None    Shift=    0.000
 RMSDP=7.18D-03 MaxDP=4.43D-01 DE=-4.25D-02 OVMax= 5.82D-02

 Cycle   4  Pass 1  IDiag  1:
 RMSU=  1.73D-03    CP:  6.04D-01  1.69D+00  4.87D-01
 E= -460.888017628314     Delta-E=       -0.025284795226 Rises=F Damp=F
 DIIS: error= 1.45D-03 at cycle   4 NSaved=   4.
 NSaved= 4 IEnMin= 4 EnMin= -460.888017628314     IErMin= 4 ErrMin= 1.45D-03
 ErrMax= 1.45D-03  0.00D+00 EMaxC= 1.00D-01 BMatC= 8.39D-04 BMatP= 2.84D-02
 IDIUse=3 WtCom= 9.85D-01 WtEn= 1.45D-02
 Coeff-Com: -0.134D+00 0.284D+00 0.283D+00 0.566D+00
 Coeff-En:   0.000D+00 0.000D+00 0.000D+00 0.100D+01
 Coeff:     -0.132D+00 0.280D+00 0.279D+00 0.572D+00
 Gap=     0.310 Goal=   None    Shift=    0.000
 RMSDP=8.71D-04 MaxDP=4.75D-02 DE=-2.53D-02 OVMax= 7.86D-03

 Cycle   5  Pass 1  IDiag  1:
 RMSU=  5.41D-04    CP:  6.06D-01  1.71D+00  5.38D-01  8.41D-01
 E= -460.888803570014     Delta-E=       -0.000785941700 Rises=F Damp=F
 DIIS: error= 2.23D-04 at cycle   5 NSaved=   5.
 NSaved= 5 IEnMin= 5 EnMin= -460.888803570014     IErMin= 5 ErrMin= 2.23D-04
 ErrMax= 2.23D-04  0.00D+00 EMaxC= 1.00D-01 BMatC= 1.63D-05 BMatP= 8.39D-04
 IDIUse=3 WtCom= 9.98D-01 WtEn= 2.23D-03
 Coeff-Com:  0.556D-02-0.116D-01 0.116D-01 0.135D+00 0.859D+00
 Coeff-En:   0.000D+00 0.000D+00 0.000D+00 0.000D+00 0.100D+01
 Coeff:      0.555D-02-0.116D-01 0.116D-01 0.135D+00 0.859D+00
 Gap=     0.310 Goal=   None    Shift=    0.000
 RMSDP=2.08D-04 MaxDP=1.34D-02 DE=-7.86D-04 OVMax= 2.52D-03

 Cycle   6  Pass 1  IDiag  1:
 RMSU=  1.57D-04    CP:  6.06D-01  1.71D+00  5.36D-01  8.84D-01  1.12D+00
 E= -460.888826197660     Delta-E=       -0.000022627646 Rises=F Damp=F
 DIIS: error= 1.35D-04 at cycle   6 NSaved=   6.
 NSaved= 6 IEnMin= 6 EnMin= -460.888826197660     IErMin= 6 ErrMin= 1.35D-04
 ErrMax= 1.35D-04  0.00D+00 EMaxC= 1.00D-01 BMatC= 3.23D-06 BMatP= 1.63D-05
 IDIUse=3 WtCom= 9.99D-01 WtEn= 1.35D-03
 Coeff-Com:  0.160D-01-0.341D-01-0.232D-01-0.876D-02 0.323D+00 0.727D+00
 Coeff-En:   0.000D+00 0.000D+00 0.000D+00 0.000D+00 0.000D+00 0.100D+01
 Coeff:      0.160D-01-0.341D-01-0.232D-01-0.875D-02 0.323D+00 0.727D+00
 Gap=     0.311 Goal=   None    Shift=    0.000
 RMSDP=1.44D-04 MaxDP=1.05D-02 DE=-2.26D-05 OVMax= 1.02D-03

 Cycle   7  Pass 1  IDiag  1:
 RMSU=  4.29D-05    CP:  6.05D-01  1.71D+00  5.30D-01  9.03D-01  1.21D+00
                    CP:  1.07D+00
 E= -460.888831103224     Delta-E=       -0.000004905564 Rises=F Damp=F
 DIIS: error= 4.39D-05 at cycle   7 NSaved=   7.
 NSaved= 7 IEnMin= 7 EnMin= -460.888831103224     IErMin= 7 ErrMin= 4.39D-05
 ErrMax= 4.39D-05  0.00D+00 EMaxC= 1.00D-01 BMatC= 2.44D-07 BMatP= 3.23D-06
 IDIUse=1 WtCom= 1.00D+00 WtEn= 0.00D+00
 Coeff-Com:  0.151D-02-0.320D-02-0.292D-02-0.134D-01-0.540D-01 0.962D-01
 Coeff-Com:  0.976D+00
 Coeff:      0.151D-02-0.320D-02-0.292D-02-0.134D-01-0.540D-01 0.962D-01
 Coeff:      0.976D+00
 Gap=     0.311 Goal=   None    Shift=    0.000
 RMSDP=2.69D-05 MaxDP=3.00D-03 DE=-4.91D-06 OVMax= 5.94D-04

 Cycle   8  Pass 1  IDiag  1:
 RMSU=  2.05D-05    CP:  6.05D-01  1.71D+00  5.30D-01  9.06D-01  1.21D+00
                    CP:  1.17D+00  1.03D+00
 E= -460.888831865549     Delta-E=       -0.000000762325 Rises=F Damp=F
 DIIS: error= 2.88D-05 at cycle   8 NSaved=   8.
 NSaved= 8 IEnMin= 8 EnMin= -460.888831865549     IErMin= 8 ErrMin= 2.88D-05
 ErrMax= 2.88D-05  0.00D+00 EMaxC= 1.00D-01 BMatC= 7.68D-08 BMatP= 2.44D-07
 IDIUse=1 WtCom= 1.00D+00 WtEn= 0.00D+00
 Coeff-Com: -0.190D-02 0.408D-02 0.280D-02-0.360D-02-0.759D-01-0.824D-01
 Coeff-Com:  0.410D+00 0.747D+00
 Coeff:     -0.190D-02 0.408D-02 0.280D-02-0.360D-02-0.759D-01-0.824D-01
 Coeff:      0.410D+00 0.747D+00
 Gap=     0.311 Goal=   None    Shift=    0.000
 RMSDP=1.47D-05 MaxDP=1.19D-03 DE=-7.62D-07 OVMax= 1.99D-04

 Cycle   9  Pass 1  IDiag  1:
 RMSU=  9.67D-06    CP:  6.05D-01  1.71D+00  5.30D-01  9.06D-01  1.21D+00
                    CP:  1.21D+00  1.08D+00  1.10D+00
 E= -460.888832022290     Delta-E=       -0.000000156741 Rises=F Damp=F
 DIIS: error= 7.33D-06 at cycle   9 NSaved=   9.
 NSaved= 9 IEnMin= 9 EnMin= -460.888832022290     IErMin= 9 ErrMin= 7.33D-06
 ErrMax= 7.33D-06  0.00D+00 EMaxC= 1.00D-01 BMatC= 5.78D-09 BMatP= 7.68D-08
 IDIUse=1 WtCom= 1.00D+00 WtEn= 0.00D+00
 Coeff-Com: -0.757D-03 0.162D-02 0.132D-02 0.129D-02-0.128D-01-0.392D-01
 Coeff-Com: -0.359D-01 0.166D+00 0.919D+00
 Coeff:     -0.757D-03 0.162D-02 0.132D-02 0.129D-02-0.128D-01-0.392D-01
 Coeff:     -0.359D-01 0.166D+00 0.919D+00
 Gap=     0.311 Goal=   None    Shift=    0.000
 RMSDP=7.76D-06 MaxDP=7.55D-04 DE=-1.57D-07 OVMax= 1.10D-04

 Cycle  10  Pass 1  IDiag  1:
 RMSU=  3.65D-06    CP:  6.05D-01  1.71D+00  5.30D-01  9.05D-01  1.21D+00
                    CP:  1.21D+00  1.08D+00  1.21D+00  1.12D+00
 E= -460.888832044662     Delta-E=       -0.000000022372 Rises=F Damp=F
 DIIS: error= 4.98D-06 at cycle  10 NSaved=  10.
 NSaved=10 IEnMin=10 EnMin= -460.888832044662     IErMin=10 ErrMin= 4.98D-06
 ErrMax= 4.98D-06  0.00D+00 EMaxC= 1.00D-01 BMatC= 8.80D-10 BMatP= 5.78D-09
 IDIUse=1 WtCom= 1.00D+00 WtEn= 0.00D+00
 Coeff-Com:  0.248D-04-0.579D-04 0.254D-04 0.803D-03 0.563D-02-0.892D-04
 Coeff-Com: -0.509D-01-0.667D-01 0.214D+00 0.897D+00
 Coeff:      0.248D-04-0.579D-04 0.254D-04 0.803D-03 0.563D-02-0.892D-04
 Coeff:     -0.509D-01-0.667D-01 0.214D+00 0.897D+00
 Gap=     0.311 Goal=   None    Shift=    0.000
 RMSDP=2.95D-06 MaxDP=3.07D-04 DE=-2.24D-08 OVMax= 3.94D-05

 Cycle  11  Pass 1  IDiag  1:
 RMSU=  7.39D-07    CP:  6.05D-01  1.71D+00  5.30D-01  9.05D-01  1.20D+00
                    CP:  1.21D+00  1.06D+00  1.26D+00  1.24D+00  1.13D+00
 E= -460.888832047643     Delta-E=       -0.000000002981 Rises=F Damp=F
 DIIS: error= 1.28D-06 at cycle  11 NSaved=  11.
 NSaved=11 IEnMin=11 EnMin= -460.888832047643     IErMin=11 ErrMin= 1.28D-06
 ErrMax= 1.28D-06  0.00D+00 EMaxC= 1.00D-01 BMatC= 2.05D-10 BMatP= 8.80D-10
 IDIUse=1 WtCom= 1.00D+00 WtEn= 0.00D+00
 Coeff-Com:  0.131D-03-0.280D-03-0.205D-03 0.101D-03 0.409D-02 0.576D-02
 Coeff-Com: -0.116D-01-0.537D-01-0.675D-01 0.348D+00 0.775D+00
 Coeff:      0.131D-03-0.280D-03-0.205D-03 0.101D-03 0.409D-02 0.576D-02
 Coeff:     -0.116D-01-0.537D-01-0.675D-01 0.348D+00 0.775D+00
 Gap=     0.311 Goal=   None    Shift=    0.000
 RMSDP=9.54D-07 MaxDP=6.79D-05 DE=-2.98D-09 OVMax= 1.54D-05

 Cycle  12  Pass 1  IDiag  1:
 RMSU=  3.80D-07    CP:  6.05D-01  1.71D+00  5.30D-01  9.05D-01  1.20D+00
                    CP:  1.21D+00  1.06D+00  1.27D+00  1.26D+00  1.23D+00
                    CP:  1.09D+00
 E= -460.888832048171     Delta-E=       -0.000000000528 Rises=F Damp=F
 DIIS: error= 5.15D-07 at cycle  12 NSaved=  12.
 NSaved=12 IEnMin=12 EnMin= -460.888832048171     IErMin=12 ErrMin= 5.15D-07
 ErrMax= 5.15D-07  0.00D+00 EMaxC= 1.00D-01 BMatC= 1.63D-11 BMatP= 2.05D-10
 IDIUse=1 WtCom= 1.00D+00 WtEn= 0.00D+00
 Coeff-Com:  0.909D-05-0.187D-04-0.270D-04-0.121D-03-0.458D-03 0.387D-03
 Coeff-Com:  0.750D-02 0.502D-02-0.446D-01-0.968D-01 0.273D-01 0.110D+01
 Coeff:      0.909D-05-0.187D-04-0.270D-04-0.121D-03-0.458D-03 0.387D-03
 Coeff:      0.750D-02 0.502D-02-0.446D-01-0.968D-01 0.273D-01 0.110D+01
 Gap=     0.311 Goal=   None    Shift=    0.000
 RMSDP=3.83D-07 MaxDP=2.55D-05 DE=-5.28D-10 OVMax= 8.16D-06

 Cycle  13  Pass 1  IDiag  1:
 RMSU=  1.37D-07    CP:  6.05D-01  1.71D+00  5.30D-01  9.05D-01  1.20D+00
                    CP:  1.21D+00  1.06D+00  1.27D+00  1.25D+00  1.28D+00
                    CP:  1.20D+00  1.44D+00
 E= -460.888832048255     Delta-E=       -0.000000000084 Rises=F Damp=F
 DIIS: error= 1.77D-07 at cycle  13 NSaved=  13.
 NSaved=13 IEnMin=13 EnMin= -460.888832048255     IErMin=13 ErrMin= 1.77D-07
 ErrMax= 1.77D-07  0.00D+00 EMaxC= 1.00D-01 BMatC= 5.18D-12 BMatP= 1.63D-11
 IDIUse=1 WtCom= 1.00D+00 WtEn= 0.00D+00
 Coeff-Com: -0.111D-04 0.242D-04 0.125D-04-0.626D-04-0.645D-03-0.527D-03
 Coeff-Com:  0.469D-02 0.880D-02-0.929D-02-0.773D-01-0.878D-01 0.467D+00
 Coeff-Com:  0.695D+00
 Coeff:     -0.111D-04 0.242D-04 0.125D-04-0.626D-04-0.645D-03-0.527D-03
 Coeff:      0.469D-02 0.880D-02-0.929D-02-0.773D-01-0.878D-01 0.467D+00
 Coeff:      0.695D+00
 Gap=     0.311 Goal=   None    Shift=    0.000
 RMSDP=1.42D-07 MaxDP=1.02D-05 DE=-8.40D-11 OVMax= 2.11D-06

 Cycle  14  Pass 1  IDiag  1:
 RMSU=  4.69D-08    CP:  6.05D-01  1.71D+00  5.30D-01  9.05D-01  1.20D+00
                    CP:  1.21D+00  1.06D+00  1.26D+00  1.24D+00  1.28D+00
                    CP:  1.21D+00  1.53D+00  1.24D+00
 E= -460.888832048282     Delta-E=       -0.000000000028 Rises=F Damp=F
 DIIS: error= 9.59D-08 at cycle  14 NSaved=  14.
 NSaved=14 IEnMin=14 EnMin= -460.888832048282     IErMin=14 ErrMin= 9.59D-08
 ErrMax= 9.59D-08  0.00D+00 EMaxC= 1.00D-01 BMatC= 6.02D-13 BMatP= 5.18D-12
 IDIUse=1 WtCom= 1.00D+00 WtEn= 0.00D+00
 Coeff-Com: -0.387D-05 0.827D-05 0.674D-05 0.120D-05-0.679D-04-0.192D-03
 Coeff-Com: -0.354D-03 0.110D-02 0.572D-02-0.609D-04-0.284D-01-0.104D+00
 Coeff-Com:  0.163D+00 0.964D+00
 Coeff:     -0.387D-05 0.827D-05 0.674D-05 0.120D-05-0.679D-04-0.192D-03
 Coeff:     -0.354D-03 0.110D-02 0.572D-02-0.609D-04-0.284D-01-0.104D+00
 Coeff:      0.163D+00 0.964D+00
 Gap=     0.311 Goal=   None    Shift=    0.000
 RMSDP=6.81D-08 MaxDP=4.78D-06 DE=-2.76D-11 OVMax= 1.30D-06

 Cycle  15  Pass 1  IDiag  1:
 RMSU=  1.65D-08    CP:  6.05D-01  1.71D+00  5.30D-01  9.05D-01  1.20D+00
                    CP:  1.21D+00  1.06D+00  1.26D+00  1.24D+00  1.28D+00
                    CP:  1.19D+00  1.56D+00  1.39D+00  1.20D+00
 E= -460.888832048277     Delta-E=        0.000000000005 Rises=F Damp=F
 DIIS: error= 3.06D-08 at cycle  15 NSaved=  15.
 NSaved=15 IEnMin=14 EnMin= -460.888832048282     IErMin=15 ErrMin= 3.06D-08
 ErrMax= 3.06D-08  0.00D+00 EMaxC= 1.00D-01 BMatC= 9.67D-14 BMatP= 6.02D-13
 IDIUse=1 WtCom= 1.00D+00 WtEn= 0.00D+00
 Coeff-Com:  0.142D-07-0.108D-06 0.681D-06 0.737D-05 0.571D-04 0.996D-05
 Coeff-Com: -0.702D-03-0.732D-03 0.238D-02 0.902D-02 0.409D-02-0.871D-01
 Coeff-Com: -0.557D-01 0.270D+00 0.858D+00
 Coeff:      0.142D-07-0.108D-06 0.681D-06 0.737D-05 0.571D-04 0.996D-05
 Coeff:     -0.702D-03-0.732D-03 0.238D-02 0.902D-02 0.409D-02-0.871D-01
 Coeff:     -0.557D-01 0.270D+00 0.858D+00
 Gap=     0.311 Goal=   None    Shift=    0.000
 RMSDP=3.56D-08 MaxDP=2.44D-06 DE= 5.00D-12 OVMax= 4.71D-07

 Cycle  16  Pass 1  IDiag  1:
 RMSU=  7.13D-09    CP:  6.05D-01  1.71D+00  5.30D-01  9.05D-01  1.20D+00
                    CP:  1.21D+00  1.06D+00  1.26D+00  1.24D+00  1.28D+00
                    CP:  1.19D+00  1.56D+00  1.46D+00  1.38D+00  1.23D+00
 E= -460.888832048275     Delta-E=        0.000000000002 Rises=F Damp=F
 DIIS: error= 1.20D-08 at cycle  16 NSaved=  16.
 NSaved=16 IEnMin=14 EnMin= -460.888832048282     IErMin=16 ErrMin= 1.20D-08
 ErrMax= 1.20D-08  0.00D+00 EMaxC= 1.00D-01 BMatC= 1.89D-14 BMatP= 9.67D-14
 IDIUse=1 WtCom= 1.00D+00 WtEn= 0.00D+00
 Coeff-Com:  0.644D-06-0.141D-05-0.920D-06 0.212D-05 0.310D-04 0.439D-04
 Coeff-Com: -0.167D-03-0.418D-03-0.185D-03 0.320D-02 0.800D-02-0.113D-01
 Coeff-Com: -0.595D-01-0.851D-01 0.275D+00 0.870D+00
 Coeff:      0.644D-06-0.141D-05-0.920D-06 0.212D-05 0.310D-04 0.439D-04
 Coeff:     -0.167D-03-0.418D-03-0.185D-03 0.320D-02 0.800D-02-0.113D-01
 Coeff:     -0.595D-01-0.851D-01 0.275D+00 0.870D+00
 Gap=     0.311 Goal=   None    Shift=    0.000
 RMSDP=1.18D-08 MaxDP=1.05D-06 DE= 2.05D-12 OVMax= 1.94D-07

 Cycle  17  Pass 1  IDiag  1:
 RMSU=  2.02D-09    CP:  6.05D-01  1.71D+00  5.30D-01  9.05D-01  1.20D+00
                    CP:  1.21D+00  1.06D+00  1.26D+00  1.24D+00  1.28D+00
                    CP:  1.18D+00  1.55D+00  1.48D+00  1.45D+00  1.39D+00
                    CP:  1.11D+00
 E= -460.888832048282     Delta-E=       -0.000000000006 Rises=F Damp=F
 DIIS: error= 4.84D-09 at cycle  17 NSaved=  17.
 NSaved=17 IEnMin=14 EnMin= -460.888832048282     IErMin=17 ErrMin= 4.84D-09
 ErrMax= 4.84D-09  0.00D+00 EMaxC= 1.00D-01 BMatC= 1.24D-15 BMatP= 1.89D-14
 IDIUse=1 WtCom= 1.00D+00 WtEn= 0.00D+00
 Large coefficients: NSaved= 17 BigCof=    0.00 CofMax=   10.00 Det=-6.95D-15
 Inversion failed.  Reducing to 16 matrices.
 Large coefficients: NSaved= 16 BigCof=    0.00 CofMax=   10.00 Det=-7.30D-15
 Inversion failed.  Reducing to 15 matrices.
 Coeff-Com: -0.103D-06-0.670D-06-0.541D-05 0.286D-05 0.654D-04 0.682D-04
 Coeff-Com: -0.310D-03-0.113D-02 0.522D-03 0.108D-01-0.345D-03-0.311D-01
 Coeff-Com: -0.861D-01 0.404D-01 0.107D+01
 Coeff:     -0.103D-06-0.670D-06-0.541D-05 0.286D-05 0.654D-04 0.682D-04
 Coeff:     -0.310D-03-0.113D-02 0.522D-03 0.108D-01-0.345D-03-0.311D-01
 Coeff:     -0.861D-01 0.404D-01 0.107D+01
 Gap=     0.311 Goal=   None    Shift=    0.000
 RMSDP=3.49D-09 MaxDP=1.53D-07 DE=-6.25D-12 OVMax= 6.05D-08

 SCF Done:  E(RwB97XD) =  -460.888832048     A.U. after   17 cycles
            NFock= 17  Conv=0.35D-08     -V/T= 1.9983
 KE= 4.616867583311D+02 PE=-2.199667132389D+03 EE= 7.146117497833D+02
 Leave Link  502 at Mon Nov 21 14:53:11 2022, MaxMem= 16106127360 cpu:             759.0 elap:              23.8
 (Enter /opt/ap/G16/B01/g16/l601.exe)
 Copying SCF densities to generalized density rwf, IOpCl= 0 IROHF=0.

 **********************************************************************

            Population analysis using the SCF Density.

 **********************************************************************

 Orbital symmetries:
       Occupied  (A) (A) (A) (A) (A) (A) (A) (A) (A) (A) (A) (A)
                 (A) (A) (A) (A) (A) (A) (A) (A) (A) (A) (A) (A)
                 (A) (A) (A) (A) (A) (A) (A) (A) (A) (A) (A) (A)
                 (A) (A)
       Virtual   (A) (A) (A) (A) (A) (A) (A) (A) (A) (A) (A) (A)
                 (A) (A) (A) (A) (A) (A) (A) (A) (A) (A) (A) (A)
                 (A) (A) (A) (A) (A) (A) (A) (A) (A) (A) (A) (A)
                 (A) (A) (A) (A) (A) (A) (A) (A) (A) (A) (A) (A)
                 (A) (A) (A) (A) (A) (A) (A) (A) (A) (A) (A) (A)
                 (A) (A) (A) (A) (A) (A) (A) (A) (A) (A) (A) (A)
                 (A) (A) (A) (A) (A) (A) (A) (A) (A) (A) (A) (A)
                 (A) (A) (A) (A) (A) (A) (A) (A) (A) (A) (A) (A)
                 (A) (A) (A) (A) (A) (A) (A) (A) (A) (A) (A) (A)
                 (A) (A) (A) (A) (A) (A) (A) (A) (A) (A) (A) (A)
                 (A) (A) (A) (A) (A) (A) (A) (A) (A) (A) (A) (A)
                 (A) (A) (A) (A) (A) (A) (A) (A) (A) (A) (A) (A)
                 (A) (A) (A) (A) (A) (A) (A) (A) (A) (A) (A) (A)
                 (A) (A) (A) (A) (A) (A) (A) (A) (A) (A) (A) (A)
                 (A) (A) (A) (A) (A) (A) (A) (A) (A) (A) (A) (A)
                 (A) (A) (A) (A) (A) (A) (A) (A) (A) (A) (A) (A)
                 (A) (A) (A) (A) (A) (A) (A) (A) (A) (A) (A) (A)
                 (A) (A) (A) (A) (A) (A) (A) (A) (A) (A) (A) (A)
                 (A) (A) (A) (A) (A) (A) (A) (A) (A) (A) (A) (A)
                 (A) (A) (A) (A) (A) (A) (A) (A) (A) (A) (A) (A)
                 (A) (A) (A) (A) (A) (A) (A) (A) (A) (A) (A) (A)
                 (A) (A) (A) (A) (A) (A)
 The electronic state is 1-A.
 Alpha  occ. eigenvalues --  -19.25826 -10.34766 -10.29622 -10.29386 -10.27122
 Alpha  occ. eigenvalues --  -10.26965 -10.26899 -10.26824 -10.26669 -10.26647
 Alpha  occ. eigenvalues --  -10.26582  -1.19391  -0.98650  -0.94071  -0.88380
 Alpha  occ. eigenvalues --   -0.86132  -0.83960  -0.75161  -0.73622  -0.72266
 Alpha  occ. eigenvalues --   -0.66377  -0.64464  -0.61729  -0.59797  -0.55526
 Alpha  occ. eigenvalues --   -0.54381  -0.52738  -0.52256  -0.51191  -0.48498
 Alpha  occ. eigenvalues --   -0.47517  -0.44755  -0.42951  -0.42282  -0.40565
 Alpha  occ. eigenvalues --   -0.35804  -0.32580  -0.29031
 Alpha virt. eigenvalues --    0.02033   0.03967   0.04540   0.04755   0.04973
 Alpha virt. eigenvalues --    0.06229   0.06502   0.08477   0.08789   0.08899
 Alpha virt. eigenvalues --    0.10402   0.11603   0.12162   0.13132   0.13741
 Alpha virt. eigenvalues --    0.14956   0.15099   0.15712   0.16158   0.16735
 Alpha virt. eigenvalues --    0.16911   0.16974   0.17626   0.18065   0.18319
 Alpha virt. eigenvalues --    0.18450   0.19316   0.19469   0.20083   0.20691
 Alpha virt. eigenvalues --    0.21585   0.21837   0.22435   0.22555   0.22899
 Alpha virt. eigenvalues --    0.24564   0.25691   0.25986   0.26299   0.26943
 Alpha virt. eigenvalues --    0.27644   0.28854   0.29381   0.29832   0.30243
 Alpha virt. eigenvalues --    0.31353   0.31880   0.32299   0.32738   0.33213
 Alpha virt. eigenvalues --    0.33911   0.34661   0.35109   0.35566   0.36049
 Alpha virt. eigenvalues --    0.36645   0.37541   0.37915   0.38623   0.39383
 Alpha virt. eigenvalues --    0.40101   0.41550   0.41851   0.42909   0.43186
 Alpha virt. eigenvalues --    0.44404   0.44876   0.46663   0.48143   0.48591
 Alpha virt. eigenvalues --    0.51246   0.57609   0.58468   0.60196   0.61389
 Alpha virt. eigenvalues --    0.62022   0.62783   0.65565   0.66046   0.66413
 Alpha virt. eigenvalues --    0.67277   0.67462   0.68360   0.68739   0.70122
 Alpha virt. eigenvalues --    0.70459   0.71041   0.71594   0.72456   0.72724
 Alpha virt. eigenvalues --    0.74919   0.75308   0.76389   0.79050   0.81309
 Alpha virt. eigenvalues --    0.82297   0.83760   0.85513   0.87071   0.87794
 Alpha virt. eigenvalues --    0.89429   0.90593   0.91637   0.92690   0.93430
 Alpha virt. eigenvalues --    0.95923   0.96754   0.97374   0.99996   1.00487
 Alpha virt. eigenvalues --    1.01079   1.02316   1.04141   1.05137   1.05860
 Alpha virt. eigenvalues --    1.06790   1.07597   1.10147   1.11224   1.12131
 Alpha virt. eigenvalues --    1.14377   1.15160   1.18488   1.19270   1.20420
 Alpha virt. eigenvalues --    1.21409   1.23068   1.23810   1.24721   1.25443
 Alpha virt. eigenvalues --    1.27678   1.34087   1.35511   1.42564   1.46372
 Alpha virt. eigenvalues --    1.49527   1.56211   1.57642   1.58011   1.59508
 Alpha virt. eigenvalues --    1.61900   1.62358   1.63311   1.64850   1.70424
 Alpha virt. eigenvalues --    1.70627   1.71175   1.71496   1.72646   1.75330
 Alpha virt. eigenvalues --    1.76293   1.77771   1.80512   1.81395   1.85037
 Alpha virt. eigenvalues --    1.89818   1.90558   1.92464   1.92864   1.93474
 Alpha virt. eigenvalues --    1.96191   1.97504   1.98194   2.00366   2.03653
 Alpha virt. eigenvalues --    2.04978   2.05655   2.07880   2.08906   2.09262
 Alpha virt. eigenvalues --    2.09978   2.12389   2.13530   2.16260   2.19560
 Alpha virt. eigenvalues --    2.24905   2.27493   2.28867   2.30497   2.34858
 Alpha virt. eigenvalues --    2.37745   2.39658   2.41415   2.46967   2.51254
 Alpha virt. eigenvalues --    2.52574   2.53723   2.55309   2.55746   2.57761
 Alpha virt. eigenvalues --    2.66465   2.69550   2.72142   2.73010   2.76459
 Alpha virt. eigenvalues --    2.81342   2.81620   2.84541   2.88600   2.89692
 Alpha virt. eigenvalues --    2.92976   2.94206   2.95736   2.99217   3.01534
 Alpha virt. eigenvalues --    3.03072   3.03838   3.04636   3.06762   3.07586
 Alpha virt. eigenvalues --    3.08701   3.11362   3.17309   3.18780   3.19523
 Alpha virt. eigenvalues --    3.22359   3.24443   3.28574   3.33709   3.35355
 Alpha virt. eigenvalues --    3.38325   3.45051   3.48125   3.50666   3.53341
 Alpha virt. eigenvalues --    3.56150   3.60024   3.74007   3.77215   3.79615
 Alpha virt. eigenvalues --    3.84270   3.89564   3.90809   3.99704   4.12675
 Alpha virt. eigenvalues --    4.27998   4.43751   4.44727   4.46132   4.52317
 Alpha virt. eigenvalues --    4.57693   4.62267   4.94580   4.97587   5.24135
 Alpha virt. eigenvalues --    5.62521   6.16073  23.80301  24.06688  24.15968
 Alpha virt. eigenvalues --   24.17651  24.22068  24.26735  24.41159  24.44826
 Alpha virt. eigenvalues --   24.51842  24.53774  50.19317
          Condensed to atoms (all electrons):
               1          2          3          4          5          6
     1  C   27.819534  -3.939507  -5.429392  -4.545073  -2.565574   0.361251
     2  C   -3.939507  20.527482  -3.955097  -0.221299  -2.097633  -3.937016
     3  C   -5.429392  -3.955097  15.541552   2.073763  -0.084648  -0.799561
     4  C   -4.545073  -0.221299   2.073763   9.881784  -0.152380  -0.711181
     5  C   -2.565574  -2.097633  -0.084648  -0.152380   8.903228   2.020802
     6  C    0.361251  -3.937016  -0.799561  -0.711181   2.020802  10.371204
     7  C   -7.631010   0.394596   1.059255  -0.566754   0.428722  -1.320705
     8  O   -0.564431  -0.267931   0.889237  -0.023132  -0.000669   0.086871
     9  C    1.775515  -0.658425  -1.262640  -0.070369  -0.261150   0.597443
    10  H   -0.178568   0.030848   0.077601   0.507095   0.046144  -0.063907
    11  C   -0.388903  -0.159779   0.306284  -0.038655   0.282699  -0.854140
    12  H   -0.037509  -0.034865  -0.046533   0.004736   0.494822   0.061585
    13  C    0.278758   0.642118  -1.425287   0.357807  -0.828808  -0.343174
    14  H    0.310390   0.099525  -0.390467  -0.012424   0.033494   0.455170
    15  H   -0.113729   0.014189  -0.130266   0.003043  -0.016491  -0.022902
    16  H    0.175403  -0.016485   0.015725   0.008373  -0.003036   0.036214
    17  H    0.154737  -0.028912   0.005751  -0.124963   0.004043   0.020566
    18  H   -0.028049   0.046305  -0.030761   0.025176  -0.050345  -0.023215
    19  H    0.032322  -0.067328   0.068030  -0.022996  -0.027585  -0.044673
               7          8          9         10         11         12
     1  C   -7.631010  -0.564431   1.775515  -0.178568  -0.388903  -0.037509
     2  C    0.394596  -0.267931  -0.658425   0.030848  -0.159779  -0.034865
     3  C    1.059255   0.889237  -1.262640   0.077601   0.306284  -0.046533
     4  C   -0.566754  -0.023132  -0.070369   0.507095  -0.038655   0.004736
     5  C    0.428722  -0.000669  -0.261150   0.046144   0.282699   0.494822
     6  C   -1.320705   0.086871   0.597443  -0.063907  -0.854140   0.061585
     7  C   14.764166  -0.015892  -0.590624   0.080029   0.160812   0.002357
     8  O   -0.015892   8.014058  -0.004960   0.000463  -0.004238   0.000427
     9  C   -0.590624  -0.004960   6.544306  -0.166437  -0.412884   0.045827
    10  H    0.080029   0.000463  -0.166437   0.505383   0.057372  -0.002535
    11  C    0.160812  -0.004238  -0.412884   0.057372   6.425238  -0.123106
    12  H    0.002357   0.000427   0.045827  -0.002535  -0.123106   0.505475
    13  C   -0.985392  -0.053365   0.162386  -0.007525   0.549851   0.000060
    14  H   -0.211820  -0.041179   0.030359  -0.001006   0.016357   0.001671
    15  H    0.676475  -0.016793  -0.051237   0.002742   0.000378  -0.000354
    16  H   -0.213280   0.277449   0.002483   0.000043   0.000028  -0.000020
    17  H   -0.195970  -0.000354   0.499896  -0.023424  -0.004773   0.001098
    18  H   -0.010832  -0.000405   0.006495   0.000369   0.456918  -0.018290
    19  H    0.027722   0.003385  -0.005959  -0.000158  -0.051091   0.000321
              13         14         15         16         17         18
     1  C    0.278758   0.310390  -0.113729   0.175403   0.154737  -0.028049
     2  C    0.642118   0.099525   0.014189  -0.016485  -0.028912   0.046305
     3  C   -1.425287  -0.390467  -0.130266   0.015725   0.005751  -0.030761
     4  C    0.357807  -0.012424   0.003043   0.008373  -0.124963   0.025176
     5  C   -0.828808   0.033494  -0.016491  -0.003036   0.004043  -0.050345
     6  C   -0.343174   0.455170  -0.022902   0.036214   0.020566  -0.023215
     7  C   -0.985392  -0.211820   0.676475  -0.213280  -0.195970  -0.010832
     8  O   -0.053365  -0.041179  -0.016793   0.277449  -0.000354  -0.000405
     9  C    0.162386   0.030359  -0.051237   0.002483   0.499896   0.006495
    10  H   -0.007525  -0.001006   0.002742   0.000043  -0.023424   0.000369
    11  C    0.549851   0.016357   0.000378   0.000028  -0.004773   0.456918
    12  H    0.000060   0.001671  -0.000354  -0.000020   0.001098  -0.018290
    13  C    7.430425   0.030024  -0.002704   0.011222   0.004312  -0.045337
    14  H    0.030024   0.523520  -0.002499   0.000613   0.001661   0.002145
    15  H   -0.002704  -0.002499   0.506533  -0.005653  -0.018132  -0.000148
    16  H    0.011222   0.000613  -0.005653   0.433933   0.001010  -0.000004
    17  H    0.004312   0.001661  -0.018132   0.001010   0.511832   0.000169
    18  H   -0.045337   0.002145  -0.000148  -0.000004   0.000169   0.504974
    19  H    0.435400  -0.023306   0.000322  -0.000159  -0.000210  -0.013926
              19
     1  C    0.032322
     2  C   -0.067328
     3  C    0.068030
     4  C   -0.022996
     5  C   -0.027585
     6  C   -0.044673
     7  C    0.027722
     8  O    0.003385
     9  C   -0.005959
    10  H   -0.000158
    11  C   -0.051091
    12  H    0.000321
    13  C    0.435400
    14  H   -0.023306
    15  H    0.000322
    16  H   -0.000159
    17  H   -0.000210
    18  H   -0.013926
    19  H    0.503885
 Mulliken charges:
               1
     1  C    0.513836
     2  C   -0.370787
     3  C   -0.482545
     4  C   -0.372552
     5  C   -0.125634
     6  C    0.109369
     7  C    0.148146
     8  O   -0.278540
     9  C   -0.180025
    10  H    0.135469
    11  C   -0.218365
    12  H    0.144832
    13  C   -0.210770
    14  H    0.177771
    15  H    0.177229
    16  H    0.276140
    17  H    0.191662
    18  H    0.178760
    19  H    0.186004
 Sum of Mulliken charges =  -0.00000
 Mulliken charges with hydrogens summed into heavy atoms:
               1
     1  C    0.513836
     2  C   -0.370787
     3  C   -0.482545
     4  C   -0.237083
     5  C    0.019199
     6  C    0.287140
     7  C    0.325375
     8  O   -0.002401
     9  C    0.011638
    11  C   -0.039605
    13  C   -0.024766
 Electronic spatial extent (au):  <R**2>=           1507.5478
 Charge=             -0.0000 electrons
 Dipole moment (field-independent basis, Debye):
    X=             -0.3346    Y=             -0.6123    Z=              1.1557  Tot=              1.3500
 Quadrupole moment (field-independent basis, Debye-Ang):
   XX=            -52.6938   YY=            -58.0599   ZZ=            -66.7971
   XY=              0.0499   XZ=             -2.7103   YZ=              3.1336
 Traceless Quadrupole moment (field-independent basis, Debye-Ang):
   XX=              6.4898   YY=              1.1237   ZZ=             -7.6135
   XY=              0.0499   XZ=             -2.7103   YZ=              3.1336
 Octapole moment (field-independent basis, Debye-Ang**2):
  XXX=             -8.8702  YYY=             -0.3506  ZZZ=              1.0091  XYY=             -1.6298
  XXY=              5.2022  XXZ=              5.9809  XZZ=             -5.6221  YZZ=              6.9867
  YYZ=              8.2407  XYZ=             -7.3860
 Hexadecapole moment (field-independent basis, Debye-Ang**3):
 XXXX=          -1086.6561 YYYY=           -665.5036 ZZZZ=            -77.1961 XXXY=            -15.7524
 XXXZ=            -13.2208 YYYX=            -10.4283 YYYZ=             20.5508 ZZZX=             -2.7593
 ZZZY=              3.2671 XXYY=           -285.2862 XXZZ=           -234.3423 YYZZ=           -136.5082
 XXYZ=             15.6513 YYXZ=            -17.8259 ZZXY=            -12.4257
 N-N= 5.624797922261D+02 E-N=-2.199667132297D+03  KE= 4.616867583311D+02
 No NMR shielding tensors so no spin-rotation constants.
 Leave Link  601 at Mon Nov 21 14:53:11 2022, MaxMem= 16106127360 cpu:               3.8 elap:               0.1
 (Enter /opt/ap/G16/B01/g16/l9999.exe)
 1\1\GINC-N09\SP\RwB97XD\6-311++G(d,p)\C10H8O1\ROOT\21-Nov-2022\0\\#P w
 B97XD/6-311++G(d,p) scf=maxcycle=512\\_conf012.gjf nmol_natom 1_19\\0,
 1\C\C,1,1.40879539\C,1,1.42289824,2,117.24956717\C,2,1.41887971,1,119.
 07594714,3,0.16510261,0\C,2,1.42227783,1,117.46262303,3,-179.44443577,
 0\C,1,1.42440336,2,119.00293897,4,179.73740031,0\C,3,1.35510367,1,122.
 33979448,2,-0.36120568,0\O,3,1.37615658,1,115.04370777,2,-179.5931286,
 0\C,4,1.34577659,2,121.30210156,1,0.17277764,0\H,4,0.93023405,2,119.33
 469462,1,-179.75965297,0\C,5,1.34486794,2,122.06073707,1,-0.32265162,0
 \H,5,0.92957893,2,118.96449269,1,179.64671542,0\C,6,1.35980576,1,121.1
 112438,2,0.11625163,0\H,6,0.92999796,1,119.43671105,2,-179.87270235,0\
 H,7,0.93052813,3,120.28038366,1,-179.76477098,0\H,8,0.81991994,3,109.4
 8785721,1,-120.,0\H,9,0.93027331,4,119.71917791,2,179.60144151,0\H,11,
 0.92987565,5,119.70372857,2,-179.69197286,0\H,13,0.93032717,6,120.1452
 4692,1,179.85241379,0\\Version=ES64L-G16RevB.01\State=1-A\HF=-460.8888
 32\RMSD=3.488e-09\Dipole=0.1860389,-0.4519201,0.2079931\Quadrupole=4.6
 257651,-5.6054039,0.9796388,-1.3910425,-0.8752999,2.8122932\PG=C01 [X(
 C10H8O1)]\\@


 THIS CURIOUS WORLD WHICH WE INHABIT IS MORE WONDERFUL THAN IT IS CONVENIENT;
 MORE BEAUTIFUL THAN IT IS USEFUL;
 IT IS MORE TO BE ADMIRED THAN IT IS TO BE USED.

                                                                 -- THOREAU
 Job cpu time:       0 days  0 hours 13 minutes 19.6 seconds.
 Elapsed time:       0 days  0 hours  0 minutes 25.1 seconds.
 File lengths (MBytes):  RWF=     51 Int=      0 D2E=      0 Chk=      6 Scr=      1
 Normal termination of Gaussian 16 at Mon Nov 21 14:53:12 2022.
