 Entering Gaussian System, Link 0=g16
 Input=_conf048.gjf
 Output=_conf048.log
 Initial command:
 /opt/ap/G16/B01/g16/l1.exe "/tmp2/scr/Gau-7501.inp" -scrdir="/tmp2/scr/"
 Entering Link 1 = /opt/ap/G16/B01/g16/l1.exe PID=      7502.
  
 Copyright (c) 1988-2017, Gaussian, Inc.  All Rights Reserved.
  
 This is part of the Gaussian(R) 16 program.  It is based on
 the Gaussian(R) 09 system (copyright 2009, Gaussian, Inc.),
 the Gaussian(R) 03 system (copyright 2003, Gaussian, Inc.),
 the Gaussian(R) 98 system (copyright 1998, Gaussian, Inc.),
 the Gaussian(R) 94 system (copyright 1995, Gaussian, Inc.),
 the Gaussian 92(TM) system (copyright 1992, Gaussian, Inc.),
 the Gaussian 90(TM) system (copyright 1990, Gaussian, Inc.),
 the Gaussian 88(TM) system (copyright 1988, Gaussian, Inc.),
 the Gaussian 86(TM) system (copyright 1986, Carnegie Mellon
 University), and the Gaussian 82(TM) system (copyright 1983,
 Carnegie Mellon University). Gaussian is a federally registered
 trademark of Gaussian, Inc.
  
 This software contains proprietary and confidential information,
 including trade secrets, belonging to Gaussian, Inc.
  
 This software is provided under written license and may be
 used, copied, transmitted, or stored only in accord with that
 written license.
  
 The following legend is applicable only to US Government
 contracts under FAR:
  
                    RESTRICTED RIGHTS LEGEND
  
 Use, reproduction and disclosure by the US Government is
 subject to restrictions as set forth in subparagraphs (a)
 and (c) of the Commercial Computer Software - Restricted
 Rights clause in FAR 52.227-19.
  
 Gaussian, Inc.
 340 Quinnipiac St., Bldg. 40, Wallingford CT 06492
  
  
 ---------------------------------------------------------------
 Warning -- This program may not be used in any manner that
 competes with the business of Gaussian, Inc. or will provide
 assistance to any competitor of Gaussian, Inc.  The licensee
 of this program is prohibited from giving any competitor of
 Gaussian, Inc. access to this program.  By using this program,
 the user acknowledges that Gaussian, Inc. is engaged in the
 business of creating and licensing software in the field of
 computational chemistry and represents and warrants to the
 licensee that it is not a competitor of Gaussian, Inc. and that
 it will not use this program in any manner prohibited above.
 ---------------------------------------------------------------
  

 Cite this work as:
 Gaussian 16, Revision B.01,
 M. J. Frisch, G. W. Trucks, H. B. Schlegel, G. E. Scuseria, 
 M. A. Robb, J. R. Cheeseman, G. Scalmani, V. Barone, 
 G. A. Petersson, H. Nakatsuji, X. Li, M. Caricato, A. V. Marenich, 
 J. Bloino, B. G. Janesko, R. Gomperts, B. Mennucci, H. P. Hratchian, 
 J. V. Ortiz, A. F. Izmaylov, J. L. Sonnenberg, D. Williams-Young, 
 F. Ding, F. Lipparini, F. Egidi, J. Goings, B. Peng, A. Petrone, 
 T. Henderson, D. Ranasinghe, V. G. Zakrzewski, J. Gao, N. Rega, 
 G. Zheng, W. Liang, M. Hada, M. Ehara, K. Toyota, R. Fukuda, 
 J. Hasegawa, M. Ishida, T. Nakajima, Y. Honda, O. Kitao, H. Nakai, 
 T. Vreven, K. Throssell, J. A. Montgomery, Jr., J. E. Peralta, 
 F. Ogliaro, M. J. Bearpark, J. J. Heyd, E. N. Brothers, K. N. Kudin, 
 V. N. Staroverov, T. A. Keith, R. Kobayashi, J. Normand, 
 K. Raghavachari, A. P. Rendell, J. C. Burant, S. S. Iyengar, 
 J. Tomasi, M. Cossi, J. M. Millam, M. Klene, C. Adamo, R. Cammi, 
 J. W. Ochterski, R. L. Martin, K. Morokuma, O. Farkas, 
 J. B. Foresman, and D. J. Fox, Gaussian, Inc., Wallingford CT, 2016.
 
 ******************************************
 Gaussian 16:  ES64L-G16RevB.01 20-Dec-2017
                21-Nov-2022 
 ******************************************
 %nprocshared=32
 Will use up to   32 processors via shared memory.
 %mem=120GB
 %chk=_conf048.chk
 ----------------------------------------
 #P wB97XD/6-311++G(d,p) scf=maxcycle=512
 ----------------------------------------
 1/38=1,172=1/1;
 2/12=2,17=6,18=5,40=1/2;
 3/5=4,6=6,7=1111,11=2,25=1,30=1,74=-58/1,2,3;
 4//1;
 5/5=2,7=512,38=5/2;
 6/7=2,8=2,9=2,10=2,28=1/1;
 99/5=1,9=1/99;
 Leave Link    1 at Mon Nov 21 14:56:32 2022, MaxMem= 16106127360 cpu:               1.6 elap:               0.1
 (Enter /opt/ap/G16/B01/g16/l101.exe)
 ----------------------------
 _conf048.gjf nmol_natom 1_19
 ----------------------------
 Symbolic Z-matrix:
 Charge =  0 Multiplicity = 1
 C
 C                    1     1.4088 
 C                    1     1.4229   2     117.24957 
 C                    2     1.41888  1     119.07595  3     0.1651   0
 C                    2     1.42228  1     117.46262  3    -179.44444  0
 C                    1     1.4244   2     119.00294  4     179.7374  0
 C                    3     1.3551   1     122.33979  2    -0.36121  0
 O                    3     1.37616  1     115.04371  2    -179.59313  0
 C                    4     1.34578  2     121.3021  1     0.17278  0
 H                    4     0.93023  2     119.33469  1    -179.75965  0
 C                    5     1.34487  2     122.06074  1    -0.32265  0
 H                    5     0.92958  2     118.96449  1     179.64672  0
 C                    6     1.35981  1     121.11124  2     0.11625  0
 H                    6     0.93     1     119.43671  2    -179.8727  0
 H                    7     0.93053  3     120.28038  1    -179.76477  0
 H                    8     0.81992  3     109.48786  1     60.      0
 H                    9     0.93027  4     119.71918  2     179.60144  0
 H                    11    0.92988  5     119.70373  2    -179.69197  0
 H                    13    0.93033  6     120.14525  1     179.85241  0
 
 ITRead=  0  0  0  0  0  0  0  0  0  0  0  0  0  0  0  0  0  0  0
 MicOpt= -1 -1 -1 -1 -1 -1 -1 -1 -1 -1 -1 -1 -1 -1 -1 -1 -1 -1 -1
 NAtoms=     19 NQM=       19 NQMF=       0 NMMI=      0 NMMIF=      0
                NMic=       0 NMicF=      0.
                    Isotopes and Nuclear Properties:
 (Nuclear quadrupole moments (NQMom) in fm**2, nuclear magnetic moments (NMagM)
  in nuclear magnetons)

  Atom         1           2           3           4           5           6           7           8           9          10
 IAtWgt=          12          12          12          12          12          12          12          16          12           1
 AtmWgt=  12.0000000  12.0000000  12.0000000  12.0000000  12.0000000  12.0000000  12.0000000  15.9949146  12.0000000   1.0078250
 NucSpn=           0           0           0           0           0           0           0           0           0           1
 AtZEff=  -0.0000000  -0.0000000  -0.0000000  -0.0000000  -0.0000000  -0.0000000  -0.0000000  -0.0000000  -0.0000000  -0.0000000
 NQMom=    0.0000000   0.0000000   0.0000000   0.0000000   0.0000000   0.0000000   0.0000000   0.0000000   0.0000000   0.0000000
 NMagM=    0.0000000   0.0000000   0.0000000   0.0000000   0.0000000   0.0000000   0.0000000   0.0000000   0.0000000   2.7928460
 AtZNuc=   6.0000000   6.0000000   6.0000000   6.0000000   6.0000000   6.0000000   6.0000000   8.0000000   6.0000000   1.0000000

  Atom        11          12          13          14          15          16          17          18          19
 IAtWgt=          12           1          12           1           1           1           1           1           1
 AtmWgt=  12.0000000   1.0078250  12.0000000   1.0078250   1.0078250   1.0078250   1.0078250   1.0078250   1.0078250
 NucSpn=           0           1           0           1           1           1           1           1           1
 AtZEff=  -0.0000000  -0.0000000  -0.0000000  -0.0000000  -0.0000000  -0.0000000  -0.0000000  -0.0000000  -0.0000000
 NQMom=    0.0000000   0.0000000   0.0000000   0.0000000   0.0000000   0.0000000   0.0000000   0.0000000   0.0000000
 NMagM=    0.0000000   2.7928460   0.0000000   2.7928460   2.7928460   2.7928460   2.7928460   2.7928460   2.7928460
 AtZNuc=   6.0000000   1.0000000   6.0000000   1.0000000   1.0000000   1.0000000   1.0000000   1.0000000   1.0000000
 Leave Link  101 at Mon Nov 21 14:56:33 2022, MaxMem= 16106127360 cpu:               5.6 elap:               0.2
 (Enter /opt/ap/G16/B01/g16/l202.exe)
                          Input orientation:                          
 ---------------------------------------------------------------------
 Center     Atomic      Atomic             Coordinates (Angstroms)
 Number     Number       Type             X           Y           Z
 ---------------------------------------------------------------------
      1          6           0        0.000000    0.000000    0.000000
      2          6           0        0.000000    0.000000    1.408795
      3          6           0        1.264986    0.000000   -0.651498
      4          6           0        1.240062    0.003573    2.098326
      5          6           0       -1.261945   -0.012237    2.064707
      6          6           0       -1.245741   -0.009299   -0.690628
      7          6           0        2.433644    0.007218    0.034427
      8          8           0        1.212032    0.008854   -2.026607
      9          6           0        2.409936    0.010412    1.433147
     10          1           0        1.244276    0.000184    3.028545
     11          6           0       -2.421000   -0.017057    1.382624
     12          1           0       -1.286266   -0.017488    2.993953
     13          6           0       -2.424704   -0.015738   -0.013076
     14          1           0       -1.252769   -0.011151   -1.620598
     15          1           0        3.245045    0.010306   -0.421097
     16          1           0        0.817497    0.681151   -2.280825
     17          1           0        3.210137    0.018260    1.907515
     18          1           0       -3.227740   -0.020753    1.845035
     19          1           0       -3.230632   -0.019714   -0.477804
 ---------------------------------------------------------------------
                    Distance matrix (angstroms):
                    1          2          3          4          5
     1  C    0.000000
     2  C    1.408795   0.000000
     3  C    1.422898   2.417643   0.000000
     4  C    2.437363   1.418880   2.749940   0.000000
     5  C    2.419849   1.422278   3.709892   2.502283   0.000000
     6  C    1.424403   2.441216   2.511049   3.735994   2.755385
     7  C    2.433898   2.794917   1.355104   2.384184   4.216609
     8  O    2.361406   3.642951   1.376157   4.125032   4.781198
     9  C    2.803892   2.410081   2.378396   1.345777   3.725867
    10  H    3.274188   2.042501   3.680101   0.930234   2.685197
    11  C    2.788042   2.421201   4.210040   3.730420   1.344868
    12  H    3.258610   2.041448   4.449551   2.680471   0.929579
    13  C    2.424790   2.810899   3.744548   4.229527   2.381009
    14  H    2.048388   3.278228   2.697845   4.477144   3.685317
    15  H    3.272269   3.725443   1.993445   3.219859   5.147104
    16  H    2.516830   3.839996   1.821790   4.451364   4.867085
    17  H    3.734157   3.248697   3.214420   1.979348   4.474947
    18  H    3.717915   3.257153   5.139815   4.475043   1.978050
    19  H    3.265834   3.741207   4.499015   5.159854   3.215610
                    6          7          8          9         10
     6  C    0.000000
     7  C    3.750180   0.000000
     8  O    2.797466   2.395871   0.000000
     9  C    4.227858   1.398925   3.661267   0.000000
    10  H    4.475771   3.221706   5.055262   1.975895   0.000000
    11  C    2.383205   5.038431   4.982213   4.831278   4.017910
    12  H    3.684813   4.753644   5.607870   4.012331   2.530840
    13  C    1.359806   4.858634   4.157013   5.046383   4.765829
    14  H    0.929998   4.040926   2.498097   4.768777   5.277300
    15  H    4.498910   0.930528   2.590522   2.033624   3.987882
    16  H    2.694884   2.902845   0.819920   4.096260   5.369848
    17  H    5.158096   2.027689   4.412463   0.930273   2.263105
    18  H    3.218391   5.943934   5.890846   5.652788   4.626021
    19  H    1.996295   5.687453   4.704984   5.955556   5.685040
                   11         12         13         14         15
    11  C    0.000000
    12  H    1.970788   0.000000
    13  C    1.395705   3.215317   0.000000
    14  H    3.222443   4.614677   1.989366   0.000000
    15  H    5.946277   5.674162   5.684470   4.655061   0.000000
    16  H    4.939252   5.721643   4.017488   2.280611   3.130752
    17  H    5.655657   4.625934   5.953256   5.689110   2.328887
    18  H    0.929876   2.255958   2.024221   3.988887   6.858080
    19  H    2.028966   3.979153   0.930327   2.284293   6.475995
                   16         17         18         19
    16  H    0.000000
    17  H    4.868916   0.000000
    18  H    5.820596   6.438299   0.000000
    19  H    4.486585   6.868384   2.322841   0.000000
 Stoichiometry    C10H8O
 Framework group  C1[X(C10H8O)]
 Deg. of freedom    51
 Full point group                 C1      NOp   1
 Largest Abelian subgroup         C1      NOp   1
 Largest concise Abelian subgroup C1      NOp   1
                         Standard orientation:                         
 ---------------------------------------------------------------------
 Center     Atomic      Atomic             Coordinates (Angstroms)
 Number     Number       Type             X           Y           Z
 ---------------------------------------------------------------------
      1          6           0       -0.027126    0.426525   -0.011381
      2          6           0       -0.339137   -0.947160    0.007143
      3          6           0        1.350682    0.781505   -0.027880
      4          6           0        0.717398   -1.894224    0.012006
      5          6           0       -1.715068   -1.307257    0.011446
      6          6           0       -1.089007    1.375852   -0.021948
      7          6           0        2.338420   -0.146180   -0.018973
      8          8           0        1.603676    2.134178   -0.036777
      9          6           0        2.005551   -1.504752    0.002761
     10          1           0        0.515458   -2.802232    0.020821
     11          6           0       -2.694271   -0.385418    0.004927
     12          1           0       -1.944635   -2.208016    0.018567
     13          6           0       -2.388761    0.976333   -0.012083
     14          1           0       -0.889913    2.284181   -0.035983
     15          1           0        3.230551    0.118245   -0.026964
     16          1           0        1.281327    2.477163    0.634581
     17          1           0        2.680858   -2.144508    0.011827
     18          1           0       -3.583389   -0.657599    0.012371
     19          1           0       -3.071752    1.608002   -0.017115
 ---------------------------------------------------------------------
 Rotational constants (GHZ):           2.0024598           1.1568895           0.7342130
 Leave Link  202 at Mon Nov 21 14:56:33 2022, MaxMem= 16106127360 cpu:               1.5 elap:               0.1
 (Enter /opt/ap/G16/B01/g16/l301.exe)
 Standard basis: 6-311++G(d,p) (5D, 7F)
 Ernie: Thresh=  0.10000D-02 Tol=  0.10000D-05 Strict=F.
 There are   309 symmetry adapted cartesian basis functions of A   symmetry.
 There are   298 symmetry adapted basis functions of A   symmetry.
   298 basis functions,   468 primitive gaussians,   309 cartesian basis functions
    38 alpha electrons       38 beta electrons
       nuclear repulsion energy       563.0319535446 Hartrees.
 IExCor= 4639 DFT=T Ex+Corr=wB97XD ExCW=0 ScaHFX=  1.000000
 ScaDFX=  1.000000  1.000000  1.000000  1.000000 ScalE2=  1.000000  1.000000
 IRadAn=      5 IRanWt=     -1 IRanGd=            0 ICorTp=0 IEmpDi=121
 HFx  wShort=  0.000000 wLong=  0.200000 cFull=  0.222036 cShort=  0.000000 cLong=  0.777964
 DFx  wShort=  0.000000 wLong=  0.200000 cFull=  0.000000 cShort=  0.000000 cLong=  1.000000
 NAtoms=   19 NActive=   19 NUniq=   19 SFac= 1.00D+00 NAtFMM=   60 NAOKFM=F Big=F
 Integral buffers will be    131072 words long.
 Raffenetti 2 integral format.
 Two-electron integral symmetry is turned on.
 R6Disp:  Grimme-D2 Dispersion energy=       -0.0103830268 Hartrees.
 Nuclear repulsion after empirical dispersion term =      563.0215705178 Hartrees.
 Leave Link  301 at Mon Nov 21 14:56:33 2022, MaxMem= 16106127360 cpu:               1.3 elap:               0.0
 (Enter /opt/ap/G16/B01/g16/l302.exe)
 NPDir=0 NMtPBC=     1 NCelOv=     1 NCel=       1 NClECP=     1 NCelD=      1
         NCelK=      1 NCelE2=     1 NClLst=     1 CellRange=     0.0.
 One-electron integrals computed using PRISM.
 One-electron integral symmetry used in STVInt
 NBasis=   298 RedAO= T EigKep=  1.34D-06  NBF=   298
 NBsUse=   296 1.00D-06 EigRej=  6.41D-07 NBFU=   296
 Precomputing XC quadrature grid using
 IXCGrd= 4 IRadAn=           5 IRanWt=          -1 IRanGd=           0 AccXCQ= 0.00D+00.
 Generated NRdTot=       0 NPtTot=           0 NUsed=           0 NTot=          32
 NSgBfM=   309   309   309   309   309 MxSgAt=    19 MxSgA2=    19.
 Leave Link  302 at Mon Nov 21 14:56:33 2022, MaxMem= 16106127360 cpu:               6.4 elap:               0.2
 (Enter /opt/ap/G16/B01/g16/l303.exe)
 DipDrv:  MaxL=1.
 Leave Link  303 at Mon Nov 21 14:56:33 2022, MaxMem= 16106127360 cpu:               1.5 elap:               0.1
 (Enter /opt/ap/G16/B01/g16/l401.exe)
 ExpMin= 3.60D-02 ExpMax= 8.59D+03 ExpMxC= 1.30D+03 IAcc=3 IRadAn=         5 AccDes= 0.00D+00
 Harris functional with IExCor= 4639 and IRadAn=       5 diagonalized for initial guess.
 HarFok:  IExCor= 4639 AccDes= 0.00D+00 IRadAn=         5 IDoV= 1 UseB2=F ITyADJ=14
 ICtDFT=  3500011 ScaDFX=  1.000000  1.000000  1.000000  1.000000
 FoFCou: FMM=F IPFlag=           0 FMFlag=      100000 FMFlg1=           0
         NFxFlg=           0 DoJE=T BraDBF=F KetDBF=T FulRan=T
         wScrn=  0.000000 ICntrl=       500 IOpCl=  0 I1Cent=   200000004 NGrid=           0
         NMat0=    1 NMatS0=      1 NMatT0=    0 NMatD0=    1 NMtDS0=    0 NMtDT0=    0
 Petite list used in FoFCou.
 Harris En= -440.611359569241    
 JPrj=0 DoOrth=F DoCkMO=F.
 Leave Link  401 at Mon Nov 21 14:56:34 2022, MaxMem= 16106127360 cpu:              16.4 elap:               0.5
 (Enter /opt/ap/G16/B01/g16/l502.exe)
 Integral symmetry usage will be decided dynamically.
 Closed shell SCF:
 Using DIIS extrapolation, IDIIS=  1040.
 NGot= 16106127360 LenX= 16105923535 LenY= 16105827613
 Requested convergence on RMS density matrix=1.00D-08 within 512 cycles.
 Requested convergence on MAX density matrix=1.00D-06.
 Requested convergence on             energy=1.00D-06.
 No special actions if energy rises.
 Fock matrices will be formed incrementally for  20 cycles.

 Cycle   1  Pass 1  IDiag  1:
 FoFJK:  IHMeth= 1 ICntrl=       0 DoSepK=T KAlg= 0 I1Cent=           0 FoldK=F
 IRaf=         1 NMat=       1 IRICut=       1 DoRegI=T DoRafI=F ISym2E= 0 IDoP0=0 IntGTp=1.
 FoFCou: FMM=F IPFlag=           0 FMFlag=      100000 FMFlg1=           0
         NFxFlg=           0 DoJE=T BraDBF=F KetDBF=F FulRan=T
         wScrn=  0.000000 ICntrl=       500 IOpCl=  0 I1Cent=           0 NGrid=           0
         NMat0=    1 NMatS0=      1 NMatT0=    0 NMatD0=    1 NMtDS0=    0 NMtDT0=    0
 Symmetry not used in FoFCou.
 E= -460.752932166016    
 DIIS: error= 6.14D-02 at cycle   1 NSaved=   1.
 NSaved= 1 IEnMin= 1 EnMin= -460.752932166016     IErMin= 1 ErrMin= 6.14D-02
 ErrMax= 6.14D-02  0.00D+00 EMaxC= 1.00D-01 BMatC= 9.53D-01 BMatP= 9.53D-01
 IDIUse=3 WtCom= 3.86D-01 WtEn= 6.14D-01
 Coeff-Com:  0.100D+01
 Coeff-En:   0.100D+01
 Coeff:      0.100D+01
 Gap=     0.333 Goal=   None    Shift=    0.000
 GapD=    0.333 DampG=1.000 DampE=0.500 DampFc=0.5000 IDamp=-1.
 Damping current iteration by 5.00D-01
 RMSDP=4.32D-02 MaxDP=4.87D+00              OVMax= 1.33D-01

 Cycle   2  Pass 1  IDiag  1:
 RMSU=  8.42D-03    CP:  8.09D-01
 E= -460.818831469341     Delta-E=       -0.065899303325 Rises=F Damp=T
 DIIS: error= 3.07D-02 at cycle   2 NSaved=   2.
 NSaved= 2 IEnMin= 2 EnMin= -460.818831469341     IErMin= 2 ErrMin= 3.07D-02
 ErrMax= 3.07D-02  0.00D+00 EMaxC= 1.00D-01 BMatC= 2.08D-01 BMatP= 9.53D-01
 IDIUse=3 WtCom= 6.93D-01 WtEn= 3.07D-01
 Coeff-Com: -0.726D+00 0.173D+01
 Coeff-En:   0.000D+00 0.100D+01
 Coeff:     -0.503D+00 0.150D+01
 Gap=     0.332 Goal=   None    Shift=    0.000
 RMSDP=2.46D-02 MaxDP=2.74D+00 DE=-6.59D-02 OVMax= 1.31D-01

 Cycle   3  Pass 1  IDiag  1:
 RMSU=  7.28D-03    CP:  5.85D-01  1.48D+00
 E= -460.863490285361     Delta-E=       -0.044658816020 Rises=F Damp=F
 DIIS: error= 7.73D-03 at cycle   3 NSaved=   3.
 NSaved= 3 IEnMin= 3 EnMin= -460.863490285361     IErMin= 3 ErrMin= 7.73D-03
 ErrMax= 7.73D-03  0.00D+00 EMaxC= 1.00D-01 BMatC= 2.57D-02 BMatP= 2.08D-01
 IDIUse=3 WtCom= 9.23D-01 WtEn= 7.73D-02
 Coeff-Com: -0.359D+00 0.763D+00 0.596D+00
 Coeff-En:   0.000D+00 0.000D+00 0.100D+01
 Coeff:     -0.331D+00 0.704D+00 0.627D+00
 Gap=     0.314 Goal=   None    Shift=    0.000
 RMSDP=4.45D-03 MaxDP=4.09D-01 DE=-4.47D-02 OVMax= 5.75D-02

 Cycle   4  Pass 1  IDiag  1:
 RMSU=  1.46D-03    CP:  5.61D-01  1.63D+00  5.74D-01
 E= -460.886806019969     Delta-E=       -0.023315734608 Rises=F Damp=F
 DIIS: error= 1.33D-03 at cycle   4 NSaved=   4.
 NSaved= 4 IEnMin= 4 EnMin= -460.886806019969     IErMin= 4 ErrMin= 1.33D-03
 ErrMax= 1.33D-03  0.00D+00 EMaxC= 1.00D-01 BMatC= 6.75D-04 BMatP= 2.57D-02
 IDIUse=3 WtCom= 9.87D-01 WtEn= 1.33D-02
 Coeff-Com: -0.127D+00 0.270D+00 0.279D+00 0.577D+00
 Coeff-En:   0.000D+00 0.000D+00 0.000D+00 0.100D+01
 Coeff:     -0.125D+00 0.267D+00 0.275D+00 0.583D+00
 Gap=     0.309 Goal=   None    Shift=    0.000
 RMSDP=5.50D-04 MaxDP=2.81D-02 DE=-2.33D-02 OVMax= 7.35D-03

 Cycle   5  Pass 1  IDiag  1:
 RMSU=  3.72D-04    CP:  5.62D-01  1.63D+00  6.20D-01  8.58D-01
 E= -460.887450380360     Delta-E=       -0.000644360391 Rises=F Damp=F
 DIIS: error= 1.99D-04 at cycle   5 NSaved=   5.
 NSaved= 5 IEnMin= 5 EnMin= -460.887450380360     IErMin= 5 ErrMin= 1.99D-04
 ErrMax= 1.99D-04  0.00D+00 EMaxC= 1.00D-01 BMatC= 1.63D-05 BMatP= 6.75D-04
 IDIUse=3 WtCom= 9.98D-01 WtEn= 1.99D-03
 Coeff-Com:  0.564D-02-0.118D-01 0.110D-01 0.143D+00 0.852D+00
 Coeff-En:   0.000D+00 0.000D+00 0.000D+00 0.000D+00 0.100D+01
 Coeff:      0.563D-02-0.117D-01 0.110D-01 0.143D+00 0.852D+00
 Gap=     0.309 Goal=   None    Shift=    0.000
 RMSDP=2.11D-04 MaxDP=9.23D-03 DE=-6.44D-04 OVMax= 2.59D-03

 Cycle   6  Pass 1  IDiag  1:
 RMSU=  1.69D-04    CP:  5.61D-01  1.64D+00  6.26D-01  9.05D-01  1.10D+00
 E= -460.887472147488     Delta-E=       -0.000021767128 Rises=F Damp=F
 DIIS: error= 1.30D-04 at cycle   6 NSaved=   6.
 NSaved= 6 IEnMin= 6 EnMin= -460.887472147488     IErMin= 6 ErrMin= 1.30D-04
 ErrMax= 1.30D-04  0.00D+00 EMaxC= 1.00D-01 BMatC= 3.52D-06 BMatP= 1.63D-05
 IDIUse=3 WtCom= 9.99D-01 WtEn= 1.30D-03
 Coeff-Com:  0.161D-01-0.344D-01-0.240D-01-0.569D-02 0.340D+00 0.708D+00
 Coeff-En:   0.000D+00 0.000D+00 0.000D+00 0.000D+00 0.000D+00 0.100D+01
 Coeff:      0.161D-01-0.344D-01-0.240D-01-0.568D-02 0.339D+00 0.709D+00
 Gap=     0.309 Goal=   None    Shift=    0.000
 RMSDP=1.10D-04 MaxDP=8.09D-03 DE=-2.18D-05 OVMax= 9.59D-04

 Cycle   7  Pass 1  IDiag  1:
 RMSU=  4.92D-05    CP:  5.60D-01  1.64D+00  6.24D-01  9.29D-01  1.20D+00
                    CP:  1.03D+00
 E= -460.887477150402     Delta-E=       -0.000005002914 Rises=F Damp=F
 DIIS: error= 4.09D-05 at cycle   7 NSaved=   7.
 NSaved= 7 IEnMin= 7 EnMin= -460.887477150402     IErMin= 7 ErrMin= 4.09D-05
 ErrMax= 4.09D-05  0.00D+00 EMaxC= 1.00D-01 BMatC= 2.47D-07 BMatP= 3.52D-06
 IDIUse=1 WtCom= 1.00D+00 WtEn= 0.00D+00
 Coeff-Com:  0.135D-02-0.286D-02-0.255D-02-0.140D-01-0.550D-01 0.830D-01
 Coeff-Com:  0.990D+00
 Coeff:      0.135D-02-0.286D-02-0.255D-02-0.140D-01-0.550D-01 0.830D-01
 Coeff:      0.990D+00
 Gap=     0.309 Goal=   None    Shift=    0.000
 RMSDP=2.49D-05 MaxDP=1.39D-03 DE=-5.00D-06 OVMax= 6.26D-04

 Cycle   8  Pass 1  IDiag  1:
 RMSU=  1.50D-05    CP:  5.60D-01  1.64D+00  6.24D-01  9.32D-01  1.21D+00
                    CP:  1.11D+00  1.10D+00
 E= -460.887477951404     Delta-E=       -0.000000801002 Rises=F Damp=F
 DIIS: error= 2.27D-05 at cycle   8 NSaved=   8.
 NSaved= 8 IEnMin= 8 EnMin= -460.887477951404     IErMin= 8 ErrMin= 2.27D-05
 ErrMax= 2.27D-05  0.00D+00 EMaxC= 1.00D-01 BMatC= 8.01D-08 BMatP= 2.47D-07
 IDIUse=1 WtCom= 1.00D+00 WtEn= 0.00D+00
 Coeff-Com: -0.199D-02 0.429D-02 0.310D-02-0.441D-02-0.796D-01-0.888D-01
 Coeff-Com:  0.419D+00 0.749D+00
 Coeff:     -0.199D-02 0.429D-02 0.310D-02-0.441D-02-0.796D-01-0.888D-01
 Coeff:      0.419D+00 0.749D+00
 Gap=     0.309 Goal=   None    Shift=    0.000
 RMSDP=1.23D-05 MaxDP=1.28D-03 DE=-8.01D-07 OVMax= 2.24D-04

 Cycle   9  Pass 1  IDiag  1:
 RMSU=  7.18D-06    CP:  5.60D-01  1.64D+00  6.24D-01  9.33D-01  1.22D+00
                    CP:  1.14D+00  1.18D+00  1.01D+00
 E= -460.887478118611     Delta-E=       -0.000000167207 Rises=F Damp=F
 DIIS: error= 8.07D-06 at cycle   9 NSaved=   9.
 NSaved= 9 IEnMin= 9 EnMin= -460.887478118611     IErMin= 9 ErrMin= 8.07D-06
 ErrMax= 8.07D-06  0.00D+00 EMaxC= 1.00D-01 BMatC= 5.46D-09 BMatP= 8.01D-08
 IDIUse=1 WtCom= 1.00D+00 WtEn= 0.00D+00
 Coeff-Com: -0.711D-03 0.152D-02 0.128D-02 0.134D-02-0.111D-01-0.374D-01
 Coeff-Com: -0.505D-01 0.128D+00 0.967D+00
 Coeff:     -0.711D-03 0.152D-02 0.128D-02 0.134D-02-0.111D-01-0.374D-01
 Coeff:     -0.505D-01 0.128D+00 0.967D+00
 Gap=     0.309 Goal=   None    Shift=    0.000
 RMSDP=4.39D-06 MaxDP=2.80D-04 DE=-1.67D-07 OVMax= 1.21D-04

 Cycle  10  Pass 1  IDiag  1:
 RMSU=  2.93D-06    CP:  5.60D-01  1.64D+00  6.24D-01  9.32D-01  1.22D+00
                    CP:  1.15D+00  1.19D+00  1.16D+00  1.12D+00
 E= -460.887478142686     Delta-E=       -0.000000024076 Rises=F Damp=F
 DIIS: error= 3.78D-06 at cycle  10 NSaved=  10.
 NSaved=10 IEnMin=10 EnMin= -460.887478142686     IErMin=10 ErrMin= 3.78D-06
 ErrMax= 3.78D-06  0.00D+00 EMaxC= 1.00D-01 BMatC= 8.05D-10 BMatP= 5.46D-09
 IDIUse=1 WtCom= 1.00D+00 WtEn= 0.00D+00
 Coeff-Com:  0.475D-04-0.106D-03-0.221D-04 0.888D-03 0.625D-02 0.106D-02
 Coeff-Com: -0.513D-01-0.685D-01 0.217D+00 0.895D+00
 Coeff:      0.475D-04-0.106D-03-0.221D-04 0.888D-03 0.625D-02 0.106D-02
 Coeff:     -0.513D-01-0.685D-01 0.217D+00 0.895D+00
 Gap=     0.309 Goal=   None    Shift=    0.000
 RMSDP=1.65D-06 MaxDP=1.13D-04 DE=-2.41D-08 OVMax= 3.77D-05

 Cycle  11  Pass 1  IDiag  1:
 RMSU=  6.76D-07    CP:  5.60D-01  1.64D+00  6.24D-01  9.32D-01  1.22D+00
                    CP:  1.15D+00  1.19D+00  1.17D+00  1.22D+00  1.17D+00
 E= -460.887478145446     Delta-E=       -0.000000002760 Rises=F Damp=F
 DIIS: error= 1.01D-06 at cycle  11 NSaved=  11.
 NSaved=11 IEnMin=11 EnMin= -460.887478145446     IErMin=11 ErrMin= 1.01D-06
 ErrMax= 1.01D-06  0.00D+00 EMaxC= 1.00D-01 BMatC= 1.96D-10 BMatP= 8.05D-10
 IDIUse=1 WtCom= 1.00D+00 WtEn= 0.00D+00
 Coeff-Com:  0.128D-03-0.275D-03-0.210D-03 0.132D-03 0.397D-02 0.565D-02
 Coeff-Com: -0.101D-01-0.464D-01-0.728D-01 0.341D+00 0.779D+00
 Coeff:      0.128D-03-0.275D-03-0.210D-03 0.132D-03 0.397D-02 0.565D-02
 Coeff:     -0.101D-01-0.464D-01-0.728D-01 0.341D+00 0.779D+00
 Gap=     0.309 Goal=   None    Shift=    0.000
 RMSDP=5.71D-07 MaxDP=3.14D-05 DE=-2.76D-09 OVMax= 1.43D-05

 Cycle  12  Pass 1  IDiag  1:
 RMSU=  3.11D-07    CP:  5.60D-01  1.64D+00  6.24D-01  9.32D-01  1.22D+00
                    CP:  1.15D+00  1.18D+00  1.18D+00  1.24D+00  1.23D+00
                    CP:  1.14D+00
 E= -460.887478145957     Delta-E=       -0.000000000511 Rises=F Damp=F
 DIIS: error= 4.54D-07 at cycle  12 NSaved=  12.
 NSaved=12 IEnMin=12 EnMin= -460.887478145957     IErMin=12 ErrMin= 4.54D-07
 ErrMax= 4.54D-07  0.00D+00 EMaxC= 1.00D-01 BMatC= 1.46D-11 BMatP= 1.96D-10
 IDIUse=1 WtCom= 1.00D+00 WtEn= 0.00D+00
 Coeff-Com:  0.250D-05-0.464D-05-0.151D-04-0.121D-03-0.611D-03 0.307D-04
 Coeff-Com:  0.701D-02 0.775D-02-0.416D-01-0.106D+00 0.380D-02 0.113D+01
 Coeff:      0.250D-05-0.464D-05-0.151D-04-0.121D-03-0.611D-03 0.307D-04
 Coeff:      0.701D-02 0.775D-02-0.416D-01-0.106D+00 0.380D-02 0.113D+01
 Gap=     0.309 Goal=   None    Shift=    0.000
 RMSDP=2.24D-07 MaxDP=1.32D-05 DE=-5.11D-10 OVMax= 8.15D-06

 Cycle  13  Pass 1  IDiag  1:
 RMSU=  9.92D-08    CP:  5.60D-01  1.64D+00  6.24D-01  9.32D-01  1.22D+00
                    CP:  1.15D+00  1.18D+00  1.18D+00  1.23D+00  1.26D+00
                    CP:  1.32D+00  1.36D+00
 E= -460.887478146041     Delta-E=       -0.000000000084 Rises=F Damp=F
 DIIS: error= 1.72D-07 at cycle  13 NSaved=  13.
 NSaved=13 IEnMin=13 EnMin= -460.887478146041     IErMin=13 ErrMin= 1.72D-07
 ErrMax= 1.72D-07  0.00D+00 EMaxC= 1.00D-01 BMatC= 4.99D-12 BMatP= 1.46D-11
 IDIUse=1 WtCom= 1.00D+00 WtEn= 0.00D+00
 Coeff-Com: -0.123D-04 0.269D-04 0.162D-04-0.657D-04-0.667D-03-0.619D-03
 Coeff-Com:  0.425D-02 0.911D-02-0.768D-02-0.810D-01-0.920D-01 0.491D+00
 Coeff-Com:  0.677D+00
 Coeff:     -0.123D-04 0.269D-04 0.162D-04-0.657D-04-0.667D-03-0.619D-03
 Coeff:      0.425D-02 0.911D-02-0.768D-02-0.810D-01-0.920D-01 0.491D+00
 Coeff:      0.677D+00
 Gap=     0.309 Goal=   None    Shift=    0.000
 RMSDP=6.70D-08 MaxDP=3.23D-06 DE=-8.42D-11 OVMax= 1.84D-06

 Cycle  14  Pass 1  IDiag  1:
 RMSU=  3.70D-08    CP:  5.60D-01  1.64D+00  6.24D-01  9.32D-01  1.22D+00
                    CP:  1.15D+00  1.18D+00  1.18D+00  1.23D+00  1.26D+00
                    CP:  1.35D+00  1.46D+00  1.09D+00
 E= -460.887478146053     Delta-E=       -0.000000000012 Rises=F Damp=F
 DIIS: error= 9.52D-08 at cycle  14 NSaved=  14.
 NSaved=14 IEnMin=14 EnMin= -460.887478146053     IErMin=14 ErrMin= 9.52D-08
 ErrMax= 9.52D-08  0.00D+00 EMaxC= 1.00D-01 BMatC= 5.20D-13 BMatP= 4.99D-12
 IDIUse=1 WtCom= 1.00D+00 WtEn= 0.00D+00
 Coeff-Com: -0.351D-05 0.748D-05 0.645D-05 0.302D-05-0.407D-04-0.164D-03
 Coeff-Com: -0.517D-03 0.711D-03 0.629D-02 0.154D-02-0.239D-01-0.119D+00
 Coeff-Com:  0.137D+00 0.998D+00
 Coeff:     -0.351D-05 0.748D-05 0.645D-05 0.302D-05-0.407D-04-0.164D-03
 Coeff:     -0.517D-03 0.711D-03 0.629D-02 0.154D-02-0.239D-01-0.119D+00
 Coeff:      0.137D+00 0.998D+00
 Gap=     0.309 Goal=   None    Shift=    0.000
 RMSDP=4.67D-08 MaxDP=2.98D-06 DE=-1.22D-11 OVMax= 1.36D-06

 Cycle  15  Pass 1  IDiag  1:
 RMSU=  2.08D-08    CP:  5.60D-01  1.64D+00  6.24D-01  9.32D-01  1.22D+00
                    CP:  1.15D+00  1.18D+00  1.18D+00  1.23D+00  1.26D+00
                    CP:  1.34D+00  1.48D+00  1.28D+00  1.19D+00
 E= -460.887478146057     Delta-E=       -0.000000000004 Rises=F Damp=F
 DIIS: error= 2.90D-08 at cycle  15 NSaved=  15.
 NSaved=15 IEnMin=15 EnMin= -460.887478146057     IErMin=15 ErrMin= 2.90D-08
 ErrMax= 2.90D-08  0.00D+00 EMaxC= 1.00D-01 BMatC= 9.83D-14 BMatP= 5.20D-13
 IDIUse=1 WtCom= 1.00D+00 WtEn= 0.00D+00
 Coeff-Com:  0.887D-07-0.273D-06 0.450D-06 0.804D-05 0.625D-04 0.191D-04
 Coeff-Com: -0.694D-03-0.781D-03 0.251D-02 0.936D-02 0.475D-02-0.930D-01
 Coeff-Com: -0.544D-01 0.314D+00 0.819D+00
 Coeff:      0.887D-07-0.273D-06 0.450D-06 0.804D-05 0.625D-04 0.191D-04
 Coeff:     -0.694D-03-0.781D-03 0.251D-02 0.936D-02 0.475D-02-0.930D-01
 Coeff:     -0.544D-01 0.314D+00 0.819D+00
 Gap=     0.309 Goal=   None    Shift=    0.000
 RMSDP=1.56D-08 MaxDP=1.29D-06 DE=-3.64D-12 OVMax= 4.27D-07

 Cycle  16  Pass 1  IDiag  1:
 RMSU=  7.47D-09    CP:  5.60D-01  1.64D+00  6.24D-01  9.32D-01  1.22D+00
                    CP:  1.15D+00  1.19D+00  1.18D+00  1.23D+00  1.26D+00
                    CP:  1.34D+00  1.48D+00  1.33D+00  1.30D+00  1.28D+00
 E= -460.887478146056     Delta-E=        0.000000000001 Rises=F Damp=F
 DIIS: error= 1.39D-08 at cycle  16 NSaved=  16.
 NSaved=16 IEnMin=15 EnMin= -460.887478146057     IErMin=16 ErrMin= 1.39D-08
 ErrMax= 1.39D-08  0.00D+00 EMaxC= 1.00D-01 BMatC= 1.80D-14 BMatP= 9.83D-14
 IDIUse=1 WtCom= 1.00D+00 WtEn= 0.00D+00
 Coeff-Com:  0.608D-06-0.133D-05-0.987D-06 0.167D-05 0.258D-04 0.415D-04
 Coeff-Com: -0.111D-03-0.347D-03-0.427D-03 0.261D-02 0.766D-02-0.648D-02
 Coeff-Com: -0.566D-01-0.100D+00 0.253D+00 0.901D+00
 Coeff:      0.608D-06-0.133D-05-0.987D-06 0.167D-05 0.258D-04 0.415D-04
 Coeff:     -0.111D-03-0.347D-03-0.427D-03 0.261D-02 0.766D-02-0.648D-02
 Coeff:     -0.566D-01-0.100D+00 0.253D+00 0.901D+00
 Gap=     0.309 Goal=   None    Shift=    0.000
 RMSDP=8.02D-09 MaxDP=6.82D-07 DE= 1.48D-12 OVMax= 2.03D-07

 SCF Done:  E(RwB97XD) =  -460.887478146     A.U. after   16 cycles
            NFock= 16  Conv=0.80D-08     -V/T= 1.9983
 KE= 4.616868717422D+02 PE=-2.200582671924D+03 EE= 7.149867515177D+02
 Leave Link  502 at Mon Nov 21 14:56:56 2022, MaxMem= 16106127360 cpu:             720.3 elap:              22.6
 (Enter /opt/ap/G16/B01/g16/l601.exe)
 Copying SCF densities to generalized density rwf, IOpCl= 0 IROHF=0.

 **********************************************************************

            Population analysis using the SCF Density.

 **********************************************************************

 Orbital symmetries:
       Occupied  (A) (A) (A) (A) (A) (A) (A) (A) (A) (A) (A) (A)
                 (A) (A) (A) (A) (A) (A) (A) (A) (A) (A) (A) (A)
                 (A) (A) (A) (A) (A) (A) (A) (A) (A) (A) (A) (A)
                 (A) (A)
       Virtual   (A) (A) (A) (A) (A) (A) (A) (A) (A) (A) (A) (A)
                 (A) (A) (A) (A) (A) (A) (A) (A) (A) (A) (A) (A)
                 (A) (A) (A) (A) (A) (A) (A) (A) (A) (A) (A) (A)
                 (A) (A) (A) (A) (A) (A) (A) (A) (A) (A) (A) (A)
                 (A) (A) (A) (A) (A) (A) (A) (A) (A) (A) (A) (A)
                 (A) (A) (A) (A) (A) (A) (A) (A) (A) (A) (A) (A)
                 (A) (A) (A) (A) (A) (A) (A) (A) (A) (A) (A) (A)
                 (A) (A) (A) (A) (A) (A) (A) (A) (A) (A) (A) (A)
                 (A) (A) (A) (A) (A) (A) (A) (A) (A) (A) (A) (A)
                 (A) (A) (A) (A) (A) (A) (A) (A) (A) (A) (A) (A)
                 (A) (A) (A) (A) (A) (A) (A) (A) (A) (A) (A) (A)
                 (A) (A) (A) (A) (A) (A) (A) (A) (A) (A) (A) (A)
                 (A) (A) (A) (A) (A) (A) (A) (A) (A) (A) (A) (A)
                 (A) (A) (A) (A) (A) (A) (A) (A) (A) (A) (A) (A)
                 (A) (A) (A) (A) (A) (A) (A) (A) (A) (A) (A) (A)
                 (A) (A) (A) (A) (A) (A) (A) (A) (A) (A) (A) (A)
                 (A) (A) (A) (A) (A) (A) (A) (A) (A) (A) (A) (A)
                 (A) (A) (A) (A) (A) (A) (A) (A) (A) (A) (A) (A)
                 (A) (A) (A) (A) (A) (A) (A) (A) (A) (A) (A) (A)
                 (A) (A) (A) (A) (A) (A) (A) (A) (A) (A) (A) (A)
                 (A) (A) (A) (A) (A) (A) (A) (A) (A) (A) (A) (A)
                 (A) (A) (A) (A) (A) (A)
 The electronic state is 1-A.
 Alpha  occ. eigenvalues --  -19.25682 -10.34778 -10.29864 -10.29678 -10.27621
 Alpha  occ. eigenvalues --  -10.27219 -10.27206 -10.27182 -10.26930 -10.26852
 Alpha  occ. eigenvalues --  -10.26769  -1.19350  -0.98885  -0.94349  -0.88581
 Alpha  occ. eigenvalues --   -0.86333  -0.84375  -0.75274  -0.73606  -0.72478
 Alpha  occ. eigenvalues --   -0.67098  -0.64619  -0.61579  -0.60361  -0.55615
 Alpha  occ. eigenvalues --   -0.54918  -0.52710  -0.52508  -0.51471  -0.48585
 Alpha  occ. eigenvalues --   -0.47811  -0.45031  -0.43454  -0.42341  -0.40340
 Alpha  occ. eigenvalues --   -0.36117  -0.32799  -0.29266
 Alpha virt. eigenvalues --    0.01676   0.03938   0.04388   0.04720   0.04957
 Alpha virt. eigenvalues --    0.06270   0.06485   0.08319   0.08725   0.09023
 Alpha virt. eigenvalues --    0.10264   0.11521   0.12085   0.12996   0.13813
 Alpha virt. eigenvalues --    0.14980   0.15070   0.15554   0.16011   0.16442
 Alpha virt. eigenvalues --    0.16649   0.17141   0.17506   0.17921   0.18366
 Alpha virt. eigenvalues --    0.18658   0.19050   0.19288   0.20046   0.20688
 Alpha virt. eigenvalues --    0.21714   0.21845   0.22405   0.22569   0.22923
 Alpha virt. eigenvalues --    0.24553   0.25743   0.26037   0.26213   0.26960
 Alpha virt. eigenvalues --    0.27465   0.28745   0.29096   0.29509   0.30071
 Alpha virt. eigenvalues --    0.31081   0.31716   0.31999   0.32443   0.32786
 Alpha virt. eigenvalues --    0.34017   0.34437   0.34939   0.35321   0.35878
 Alpha virt. eigenvalues --    0.36225   0.37039   0.37834   0.38764   0.39345
 Alpha virt. eigenvalues --    0.40043   0.41130   0.41738   0.42652   0.43275
 Alpha virt. eigenvalues --    0.44142   0.44646   0.47210   0.47505   0.48061
 Alpha virt. eigenvalues --    0.50681   0.57349   0.58231   0.59962   0.61197
 Alpha virt. eigenvalues --    0.61949   0.62527   0.65208   0.65827   0.66037
 Alpha virt. eigenvalues --    0.66659   0.67581   0.67972   0.68448   0.70285
 Alpha virt. eigenvalues --    0.70523   0.70830   0.71643   0.72058   0.72667
 Alpha virt. eigenvalues --    0.74405   0.75409   0.76730   0.79018   0.80928
 Alpha virt. eigenvalues --    0.82243   0.82793   0.84856   0.86577   0.87359
 Alpha virt. eigenvalues --    0.89204   0.90455   0.91356   0.92388   0.93236
 Alpha virt. eigenvalues --    0.95729   0.96263   0.97166   0.99509   1.00530
 Alpha virt. eigenvalues --    1.01718   1.02054   1.04230   1.04906   1.05924
 Alpha virt. eigenvalues --    1.06481   1.06727   1.09915   1.11636   1.12346
 Alpha virt. eigenvalues --    1.13890   1.14768   1.18621   1.19532   1.20046
 Alpha virt. eigenvalues --    1.20685   1.23200   1.23535   1.24041   1.24366
 Alpha virt. eigenvalues --    1.27888   1.33604   1.35770   1.42557   1.46128
 Alpha virt. eigenvalues --    1.48823   1.55155   1.57337   1.58400   1.59358
 Alpha virt. eigenvalues --    1.61499   1.62578   1.62982   1.64123   1.69746
 Alpha virt. eigenvalues --    1.70098   1.70747   1.71167   1.73364   1.74886
 Alpha virt. eigenvalues --    1.76778   1.79086   1.80827   1.81115   1.84064
 Alpha virt. eigenvalues --    1.89918   1.90303   1.91885   1.92527   1.93381
 Alpha virt. eigenvalues --    1.95743   1.97392   1.99038   1.99829   2.03385
 Alpha virt. eigenvalues --    2.03942   2.05446   2.07786   2.08729   2.09229
 Alpha virt. eigenvalues --    2.10175   2.11771   2.12792   2.16294   2.19762
 Alpha virt. eigenvalues --    2.24414   2.26013   2.28468   2.30488   2.34716
 Alpha virt. eigenvalues --    2.36882   2.39388   2.42968   2.47862   2.51106
 Alpha virt. eigenvalues --    2.52787   2.53162   2.54022   2.56496   2.57464
 Alpha virt. eigenvalues --    2.66617   2.69369   2.72237   2.72849   2.76382
 Alpha virt. eigenvalues --    2.80735   2.81340   2.84237   2.88462   2.89236
 Alpha virt. eigenvalues --    2.92837   2.93819   2.95582   2.98943   3.01388
 Alpha virt. eigenvalues --    3.02721   3.03896   3.04065   3.06618   3.07192
 Alpha virt. eigenvalues --    3.08435   3.11580   3.17683   3.18445   3.19429
 Alpha virt. eigenvalues --    3.22187   3.24010   3.27795   3.33716   3.35156
 Alpha virt. eigenvalues --    3.38624   3.45364   3.48191   3.49227   3.53204
 Alpha virt. eigenvalues --    3.55924   3.60353   3.74043   3.77036   3.79007
 Alpha virt. eigenvalues --    3.83943   3.88857   3.90709   3.99741   4.13801
 Alpha virt. eigenvalues --    4.28093   4.43414   4.44524   4.45865   4.52180
 Alpha virt. eigenvalues --    4.57401   4.61916   4.94291   4.97329   5.24746
 Alpha virt. eigenvalues --    5.60122   6.16669  23.80154  24.06888  24.15542
 Alpha virt. eigenvalues --   24.17371  24.21976  24.26356  24.41212  24.44303
 Alpha virt. eigenvalues --   24.51694  24.53422  50.19772
          Condensed to atoms (all electrons):
               1          2          3          4          5          6
     1  C   22.702267  -5.235443  -3.154194  -3.846663  -1.917397  -0.436722
     2  C   -5.235443  21.338938  -2.251228   0.015934  -2.802216  -4.765339
     3  C   -3.154194  -2.251228  10.164542   2.134647  -0.035485  -0.382686
     4  C   -3.846663   0.015934   2.134647   8.910326  -0.358138  -0.617214
     5  C   -1.917397  -2.802216  -0.035485  -0.358138   9.282038   2.229636
     6  C   -0.436722  -4.765339  -0.382686  -0.617214   2.229636  11.799119
     7  C   -1.282499   0.274049   0.284955  -0.587210   0.094212  -0.096455
     8  O   -0.030058  -0.183175   0.230876  -0.030468   0.006175   0.159229
     9  C    0.956301  -0.692481  -0.787387   0.086259  -0.040028   0.359991
    10  H   -0.138517   0.061794   0.056459   0.491577   0.021918  -0.055430
    11  C   -0.443306  -0.039379   0.294222  -0.071718   0.269101  -1.199992
    12  H   -0.025456  -0.063716  -0.054681   0.013009   0.501373   0.076792
    13  C   -1.425708   0.751090  -0.283397   0.331331  -1.052160  -1.394594
    14  H   -0.116932  -0.029942  -0.086000  -0.008224   0.019054   0.385590
    15  H   -0.068639  -0.005063  -0.057383   0.026424  -0.033996   0.003279
    16  H   -0.210126  -0.024703   0.081106   0.019021  -0.021197   0.017986
    17  H    0.105485  -0.032941  -0.015604  -0.119286   0.026551   0.006688
    18  H   -0.021956   0.032710  -0.009484   0.020869  -0.058254  -0.031057
    19  H    0.042824  -0.034820   0.015225  -0.018303  -0.022005  -0.043680
               7          8          9         10         11         12
     1  C   -1.282499  -0.030058   0.956301  -0.138517  -0.443306  -0.025456
     2  C    0.274049  -0.183175  -0.692481   0.061794  -0.039379  -0.063716
     3  C    0.284955   0.230876  -0.787387   0.056459   0.294222  -0.054681
     4  C   -0.587210  -0.030468   0.086259   0.491577  -0.071718   0.013009
     5  C    0.094212   0.006175  -0.040028   0.021918   0.269101   0.501373
     6  C   -0.096455   0.159229   0.359991  -0.055430  -1.199992   0.076792
     7  C    6.905521  -0.279996   0.138969   0.027808   0.064999  -0.006223
     8  O   -0.279996   8.045039   0.039294  -0.000972   0.000554   0.000809
     9  C    0.138969   0.039294   6.075128  -0.125279  -0.302198   0.053171
    10  H    0.027808  -0.000972  -0.125279   0.499815   0.044887  -0.003444
    11  C    0.064999   0.000554  -0.302198   0.044887   6.533996  -0.121444
    12  H   -0.006223   0.000809   0.053171  -0.003444  -0.121444   0.505066
    13  C   -0.144664   0.092380   0.006746   0.000712   0.747462  -0.005767
    14  H    0.000768   0.013065   0.000330   0.000618   0.029728   0.000804
    15  H    0.545762  -0.037981  -0.073761   0.003270  -0.001201  -0.000919
    16  H    0.102727   0.237504  -0.010068   0.000804   0.005674  -0.000365
    17  H   -0.110854   0.003627   0.478872  -0.021228   0.001254   0.001980
    18  H   -0.002595  -0.000132   0.001822   0.000890   0.464780  -0.018619
    19  H    0.007508   0.000526  -0.001777  -0.000443  -0.052016   0.000479
              13         14         15         16         17         18
     1  C   -1.425708  -0.116932  -0.068639  -0.210126   0.105485  -0.021956
     2  C    0.751090  -0.029942  -0.005063  -0.024703  -0.032941   0.032710
     3  C   -0.283397  -0.086000  -0.057383   0.081106  -0.015604  -0.009484
     4  C    0.331331  -0.008224   0.026424   0.019021  -0.119286   0.020869
     5  C   -1.052160   0.019054  -0.033996  -0.021197   0.026551  -0.058254
     6  C   -1.394594   0.385590   0.003279   0.017986   0.006688  -0.031057
     7  C   -0.144664   0.000768   0.545762   0.102727  -0.110854  -0.002595
     8  O    0.092380   0.013065  -0.037981   0.237504   0.003627  -0.000132
     9  C    0.006746   0.000330  -0.073761  -0.010068   0.478872   0.001822
    10  H    0.000712   0.000618   0.003270   0.000804  -0.021228   0.000890
    11  C    0.747462   0.029728  -0.001201   0.005674   0.001254   0.464780
    12  H   -0.005767   0.000804  -0.000919  -0.000365   0.001980  -0.018619
    13  C    8.143115   0.148889   0.018837   0.058038  -0.006315  -0.049504
    14  H    0.148889   0.568109   0.002040   0.000590  -0.000323   0.000054
    15  H    0.018837   0.002040   0.492679   0.006146  -0.021098  -0.000023
    16  H    0.058038   0.000590   0.006146   0.471413  -0.001534   0.000041
    17  H   -0.006315  -0.000323  -0.021098  -0.001534   0.511423  -0.000021
    18  H   -0.049504   0.000054  -0.000023   0.000041  -0.000021   0.503703
    19  H    0.447066  -0.019333   0.000057   0.000422  -0.000050  -0.012897
              19
     1  C    0.042824
     2  C   -0.034820
     3  C    0.015225
     4  C   -0.018303
     5  C   -0.022005
     6  C   -0.043680
     7  C    0.007508
     8  O    0.000526
     9  C   -0.001777
    10  H   -0.000443
    11  C   -0.052016
    12  H    0.000479
    13  C    0.447066
    14  H   -0.019333
    15  H    0.000057
    16  H    0.000422
    17  H   -0.000050
    18  H   -0.012897
    19  H    0.501116
 Mulliken charges:
               1
     1  C    0.546739
     2  C   -0.314069
     3  C   -0.144504
     4  C   -0.392171
     5  C   -0.109185
     6  C   -0.015140
     7  C    0.063219
     8  O   -0.266296
     9  C   -0.163901
    10  H    0.134761
    11  C   -0.225401
    12  H    0.147152
    13  C   -0.383558
    14  H    0.091115
    15  H    0.201570
    16  H    0.266521
    17  H    0.193374
    18  H    0.179673
    19  H    0.190102
 Sum of Mulliken charges =  -0.00000
 Mulliken charges with hydrogens summed into heavy atoms:
               1
     1  C    0.546739
     2  C   -0.314069
     3  C   -0.144504
     4  C   -0.257410
     5  C    0.037967
     6  C    0.075975
     7  C    0.264788
     8  O    0.000225
     9  C    0.029472
    11  C   -0.045728
    13  C   -0.193456
 Electronic spatial extent (au):  <R**2>=           1503.3385
 Charge=             -0.0000 electrons
 Dipole moment (field-independent basis, Debye):
    X=             -0.9458    Y=             -0.6129    Z=              1.1029  Tot=              1.5769
 Quadrupole moment (field-independent basis, Debye-Ang):
   XX=            -56.9314   YY=            -56.9976   ZZ=            -66.7269
   XY=             -3.3521   XZ=              1.5051   YZ=              3.2975
 Traceless Quadrupole moment (field-independent basis, Debye-Ang):
   XX=              3.2872   YY=              3.2211   ZZ=             -6.5083
   XY=             -3.3521   XZ=              1.5051   YZ=              3.2975
 Octapole moment (field-independent basis, Debye-Ang**2):
  XXX=             -3.8695  YYY=              3.7112  ZZZ=              1.0205  XYY=             -6.1033
  XXY=             -7.4807  XXZ=              1.5250  XZZ=              4.7250  YZZ=              7.1544
  YYZ=              9.3745  XYZ=              4.5064
 Hexadecapole moment (field-independent basis, Debye-Ang**3):
 XXXX=          -1103.6611 YYYY=           -650.2699 ZZZZ=            -77.0786 XXXY=            -19.1052
 XXXZ=              1.8503 YYYX=             -7.3101 YYYZ=             25.3777 ZZZX=              1.5860
 ZZZY=              3.5919 XXYY=           -313.6714 XXZZ=           -235.0680 YYZZ=           -135.7002
 XXYZ=              5.1516 YYXZ=             12.5164 ZZXY=             10.2923
 N-N= 5.630215705178D+02 E-N=-2.200582672122D+03  KE= 4.616868717422D+02
 No NMR shielding tensors so no spin-rotation constants.
 Leave Link  601 at Mon Nov 21 14:56:56 2022, MaxMem= 16106127360 cpu:               4.2 elap:               0.2
 (Enter /opt/ap/G16/B01/g16/l9999.exe)
 1\1\GINC-N09\SP\RwB97XD\6-311++G(d,p)\C10H8O1\ROOT\21-Nov-2022\0\\#P w
 B97XD/6-311++G(d,p) scf=maxcycle=512\\_conf048.gjf nmol_natom 1_19\\0,
 1\C\C,1,1.40879539\C,1,1.42289824,2,117.24956717\C,2,1.41887971,1,119.
 07594714,3,0.16510261,0\C,2,1.42227783,1,117.46262303,3,-179.44443577,
 0\C,1,1.42440336,2,119.00293897,4,179.73740031,0\C,3,1.35510367,1,122.
 33979448,2,-0.36120568,0\O,3,1.37615658,1,115.04370777,2,-179.5931286,
 0\C,4,1.34577659,2,121.30210156,1,0.17277764,0\H,4,0.93023405,2,119.33
 469462,1,-179.75965297,0\C,5,1.34486794,2,122.06073707,1,-0.32265162,0
 \H,5,0.92957893,2,118.96449269,1,179.64671542,0\C,6,1.35980576,1,121.1
 112438,2,0.11625163,0\H,6,0.92999796,1,119.43671105,2,-179.87270235,0\
 H,7,0.93052813,3,120.28038366,1,-179.76477098,0\H,8,0.81991994,3,109.4
 8785721,1,60.,0\H,9,0.93027331,4,119.71917791,2,179.60144151,0\H,11,0.
 92987565,5,119.70372857,2,-179.69197286,0\H,13,0.93032717,6,120.145246
 92,1,179.85241379,0\\Version=ES64L-G16RevB.01\State=1-A\HF=-460.887478
 1\RMSD=8.017e-09\Dipole=-0.3121375,0.4277402,0.3232591\Quadrupole=3.51
 13275,-4.7614765,1.250149,0.5706652,2.2610738,-2.7045367\PG=C01 [X(C10
 H8O1)]\\@


 THE HURRIEDER I GO, THE BEHINDER I GET.
 Job cpu time:       0 days  0 hours 12 minutes 40.5 seconds.
 Elapsed time:       0 days  0 hours  0 minutes 23.9 seconds.
 File lengths (MBytes):  RWF=     51 Int=      0 D2E=      0 Chk=      6 Scr=      1
 Normal termination of Gaussian 16 at Mon Nov 21 14:56:56 2022.
