 Entering Gaussian System, Link 0=g16
 Input=_conf043.gjf
 Output=_conf043.log
 Initial command:
 /opt/ap/G16/B01/g16/l1.exe "/tmp2/scr/Gau-26005.inp" -scrdir="/tmp2/scr/"
 Entering Link 1 = /opt/ap/G16/B01/g16/l1.exe PID=     26006.
  
 Copyright (c) 1988-2017, Gaussian, Inc.  All Rights Reserved.
  
 This is part of the Gaussian(R) 16 program.  It is based on
 the Gaussian(R) 09 system (copyright 2009, Gaussian, Inc.),
 the Gaussian(R) 03 system (copyright 2003, Gaussian, Inc.),
 the Gaussian(R) 98 system (copyright 1998, Gaussian, Inc.),
 the Gaussian(R) 94 system (copyright 1995, Gaussian, Inc.),
 the Gaussian 92(TM) system (copyright 1992, Gaussian, Inc.),
 the Gaussian 90(TM) system (copyright 1990, Gaussian, Inc.),
 the Gaussian 88(TM) system (copyright 1988, Gaussian, Inc.),
 the Gaussian 86(TM) system (copyright 1986, Carnegie Mellon
 University), and the Gaussian 82(TM) system (copyright 1983,
 Carnegie Mellon University). Gaussian is a federally registered
 trademark of Gaussian, Inc.
  
 This software contains proprietary and confidential information,
 including trade secrets, belonging to Gaussian, Inc.
  
 This software is provided under written license and may be
 used, copied, transmitted, or stored only in accord with that
 written license.
  
 The following legend is applicable only to US Government
 contracts under FAR:
  
                    RESTRICTED RIGHTS LEGEND
  
 Use, reproduction and disclosure by the US Government is
 subject to restrictions as set forth in subparagraphs (a)
 and (c) of the Commercial Computer Software - Restricted
 Rights clause in FAR 52.227-19.
  
 Gaussian, Inc.
 340 Quinnipiac St., Bldg. 40, Wallingford CT 06492
  
  
 ---------------------------------------------------------------
 Warning -- This program may not be used in any manner that
 competes with the business of Gaussian, Inc. or will provide
 assistance to any competitor of Gaussian, Inc.  The licensee
 of this program is prohibited from giving any competitor of
 Gaussian, Inc. access to this program.  By using this program,
 the user acknowledges that Gaussian, Inc. is engaged in the
 business of creating and licensing software in the field of
 computational chemistry and represents and warrants to the
 licensee that it is not a competitor of Gaussian, Inc. and that
 it will not use this program in any manner prohibited above.
 ---------------------------------------------------------------
  

 Cite this work as:
 Gaussian 16, Revision B.01,
 M. J. Frisch, G. W. Trucks, H. B. Schlegel, G. E. Scuseria, 
 M. A. Robb, J. R. Cheeseman, G. Scalmani, V. Barone, 
 G. A. Petersson, H. Nakatsuji, X. Li, M. Caricato, A. V. Marenich, 
 J. Bloino, B. G. Janesko, R. Gomperts, B. Mennucci, H. P. Hratchian, 
 J. V. Ortiz, A. F. Izmaylov, J. L. Sonnenberg, D. Williams-Young, 
 F. Ding, F. Lipparini, F. Egidi, J. Goings, B. Peng, A. Petrone, 
 T. Henderson, D. Ranasinghe, V. G. Zakrzewski, J. Gao, N. Rega, 
 G. Zheng, W. Liang, M. Hada, M. Ehara, K. Toyota, R. Fukuda, 
 J. Hasegawa, M. Ishida, T. Nakajima, Y. Honda, O. Kitao, H. Nakai, 
 T. Vreven, K. Throssell, J. A. Montgomery, Jr., J. E. Peralta, 
 F. Ogliaro, M. J. Bearpark, J. J. Heyd, E. N. Brothers, K. N. Kudin, 
 V. N. Staroverov, T. A. Keith, R. Kobayashi, J. Normand, 
 K. Raghavachari, A. P. Rendell, J. C. Burant, S. S. Iyengar, 
 J. Tomasi, M. Cossi, J. M. Millam, M. Klene, C. Adamo, R. Cammi, 
 J. W. Ochterski, R. L. Martin, K. Morokuma, O. Farkas, 
 J. B. Foresman, and D. J. Fox, Gaussian, Inc., Wallingford CT, 2016.
 
 ******************************************
 Gaussian 16:  ES64L-G16RevB.01 20-Dec-2017
                21-Nov-2022 
 ******************************************
 %nprocshared=32
 Will use up to   32 processors via shared memory.
 %mem=120GB
 %chk=_conf043.chk
 ----------------------------------------
 #P wB97XD/6-311++G(d,p) scf=maxcycle=512
 ----------------------------------------
 1/38=1,172=1/1;
 2/12=2,17=6,18=5,40=1/2;
 3/5=4,6=6,7=1111,11=2,25=1,30=1,74=-58/1,2,3;
 4//1;
 5/5=2,7=512,38=5/2;
 6/7=2,8=2,9=2,10=2,28=1/1;
 99/5=1,9=1/99;
 Leave Link    1 at Mon Nov 21 14:55:41 2022, MaxMem= 16106127360 cpu:               1.5 elap:               0.1
 (Enter /opt/ap/G16/B01/g16/l101.exe)
 ----------------------------
 _conf043.gjf nmol_natom 1_19
 ----------------------------
 Symbolic Z-matrix:
 Charge =  0 Multiplicity = 1
 C
 C                    1     1.4088 
 C                    1     1.4229   2     117.24957 
 C                    2     1.41888  1     119.07595  3     0.1651   0
 C                    2     1.42228  1     117.46262  3    -179.44444  0
 C                    1     1.4244   2     119.00294  4     179.7374  0
 C                    3     1.3551   1     122.33979  2    -0.36121  0
 O                    3     1.37616  1     115.04371  2    -179.59313  0
 C                    4     1.34578  2     121.3021  1     0.17278  0
 H                    4     0.93023  2     119.33469  1    -179.75965  0
 C                    5     1.34487  2     122.06074  1    -0.32265  0
 H                    5     0.92958  2     118.96449  1     179.64672  0
 C                    6     1.35981  1     121.11124  2     0.11625  0
 H                    6     0.93     1     119.43671  2    -179.8727  0
 H                    7     0.93053  3     120.28038  1    -179.76477  0
 H                    8     0.81992  3     109.48786  1     35.      0
 H                    9     0.93027  4     119.71918  2     179.60144  0
 H                    11    0.92988  5     119.70373  2    -179.69197  0
 H                    13    0.93033  6     120.14525  1     179.85241  0
 
 ITRead=  0  0  0  0  0  0  0  0  0  0  0  0  0  0  0  0  0  0  0
 MicOpt= -1 -1 -1 -1 -1 -1 -1 -1 -1 -1 -1 -1 -1 -1 -1 -1 -1 -1 -1
 NAtoms=     19 NQM=       19 NQMF=       0 NMMI=      0 NMMIF=      0
                NMic=       0 NMicF=      0.
                    Isotopes and Nuclear Properties:
 (Nuclear quadrupole moments (NQMom) in fm**2, nuclear magnetic moments (NMagM)
  in nuclear magnetons)

  Atom         1           2           3           4           5           6           7           8           9          10
 IAtWgt=          12          12          12          12          12          12          12          16          12           1
 AtmWgt=  12.0000000  12.0000000  12.0000000  12.0000000  12.0000000  12.0000000  12.0000000  15.9949146  12.0000000   1.0078250
 NucSpn=           0           0           0           0           0           0           0           0           0           1
 AtZEff=  -0.0000000  -0.0000000  -0.0000000  -0.0000000  -0.0000000  -0.0000000  -0.0000000  -0.0000000  -0.0000000  -0.0000000
 NQMom=    0.0000000   0.0000000   0.0000000   0.0000000   0.0000000   0.0000000   0.0000000   0.0000000   0.0000000   0.0000000
 NMagM=    0.0000000   0.0000000   0.0000000   0.0000000   0.0000000   0.0000000   0.0000000   0.0000000   0.0000000   2.7928460
 AtZNuc=   6.0000000   6.0000000   6.0000000   6.0000000   6.0000000   6.0000000   6.0000000   8.0000000   6.0000000   1.0000000

  Atom        11          12          13          14          15          16          17          18          19
 IAtWgt=          12           1          12           1           1           1           1           1           1
 AtmWgt=  12.0000000   1.0078250  12.0000000   1.0078250   1.0078250   1.0078250   1.0078250   1.0078250   1.0078250
 NucSpn=           0           1           0           1           1           1           1           1           1
 AtZEff=  -0.0000000  -0.0000000  -0.0000000  -0.0000000  -0.0000000  -0.0000000  -0.0000000  -0.0000000  -0.0000000
 NQMom=    0.0000000   0.0000000   0.0000000   0.0000000   0.0000000   0.0000000   0.0000000   0.0000000   0.0000000
 NMagM=    0.0000000   2.7928460   0.0000000   2.7928460   2.7928460   2.7928460   2.7928460   2.7928460   2.7928460
 AtZNuc=   6.0000000   1.0000000   6.0000000   1.0000000   1.0000000   1.0000000   1.0000000   1.0000000   1.0000000
 Leave Link  101 at Mon Nov 21 14:55:41 2022, MaxMem= 16106127360 cpu:               5.2 elap:               0.2
 (Enter /opt/ap/G16/B01/g16/l202.exe)
                          Input orientation:                          
 ---------------------------------------------------------------------
 Center     Atomic      Atomic             Coordinates (Angstroms)
 Number     Number       Type             X           Y           Z
 ---------------------------------------------------------------------
      1          6           0        0.000000    0.000000    0.000000
      2          6           0        0.000000    0.000000    1.408795
      3          6           0        1.264986    0.000000   -0.651498
      4          6           0        1.240062    0.003573    2.098326
      5          6           0       -1.261945   -0.012237    2.064707
      6          6           0       -1.245741   -0.009299   -0.690628
      7          6           0        2.433644    0.007218    0.034427
      8          8           0        1.212032    0.008854   -2.026607
      9          6           0        2.409936    0.010412    1.433147
     10          1           0        1.244276    0.000184    3.028545
     11          6           0       -2.421000   -0.017057    1.382624
     12          1           0       -1.286266   -0.017488    2.993953
     13          6           0       -2.424704   -0.015738   -0.013076
     14          1           0       -1.252769   -0.011151   -1.620598
     15          1           0        3.245045    0.010306   -0.421097
     16          1           0        0.570258    0.455851   -2.272755
     17          1           0        3.210137    0.018260    1.907515
     18          1           0       -3.227740   -0.020753    1.845035
     19          1           0       -3.230632   -0.019714   -0.477804
 ---------------------------------------------------------------------
                    Distance matrix (angstroms):
                    1          2          3          4          5
     1  C    0.000000
     2  C    1.408795   0.000000
     3  C    1.422898   2.417643   0.000000
     4  C    2.437363   1.418880   2.749940   0.000000
     5  C    2.419849   1.422278   3.709892   2.502283   0.000000
     6  C    1.424403   2.441216   2.511049   3.735994   2.755385
     7  C    2.433898   2.794917   1.355104   2.384184   4.216609
     8  O    2.361406   3.642951   1.376157   4.125032   4.781198
     9  C    2.803892   2.410081   2.378396   1.345777   3.725867
    10  H    3.274188   2.042501   3.680101   0.930234   2.685197
    11  C    2.788042   2.421201   4.210040   3.730420   1.344868
    12  H    3.258610   2.041448   4.449551   2.680471   0.929579
    13  C    2.424790   2.810899   3.744548   4.229527   2.381009
    14  H    2.048388   3.278228   2.697845   4.477144   3.685317
    15  H    3.272269   3.725443   1.993445   3.219859   5.147104
    16  H    2.387134   3.753239   1.821790   4.445171   4.731770
    17  H    3.734157   3.248697   3.214420   1.979348   4.474947
    18  H    3.717915   3.257153   5.139815   4.475043   1.978050
    19  H    3.265834   3.741207   4.499015   5.159854   3.215610
                    6          7          8          9         10
     6  C    0.000000
     7  C    3.750180   0.000000
     8  O    2.797466   2.395871   0.000000
     9  C    4.227858   1.398925   3.661267   0.000000
    10  H    4.475771   3.221706   5.055262   1.975895   0.000000
    11  C    2.383205   5.038431   4.982213   4.831278   4.017910
    12  H    3.684813   4.753644   5.607870   4.012331   2.530840
    13  C    1.359806   4.858634   4.157013   5.046383   4.765829
    14  H    0.929998   4.040926   2.498097   4.768777   5.277300
    15  H    4.498910   0.930528   2.590522   2.033624   3.987882
    16  H    2.453027   2.999427   0.819920   4.161315   5.363367
    17  H    5.158096   2.027689   4.412463   0.930273   2.263105
    18  H    3.218391   5.943934   5.890846   5.652788   4.626021
    19  H    1.996295   5.687453   4.704984   5.955556   5.685040
                   11         12         13         14         15
    11  C    0.000000
    12  H    1.970788   0.000000
    13  C    1.395705   3.215317   0.000000
    14  H    3.222443   4.614677   1.989366   0.000000
    15  H    5.946277   5.674162   5.684470   4.655061   0.000000
    16  H    4.746900   5.604368   3.781315   1.991690   3.283539
    17  H    5.655657   4.625934   5.953256   5.689110   2.328887
    18  H    0.929876   2.255958   2.024221   3.988887   6.858080
    19  H    2.028966   3.979153   0.930327   2.284293   6.475995
                   16         17         18         19
    16  H    0.000000
    17  H    4.963376   0.000000
    18  H    5.622111   6.438299   0.000000
    19  H    4.230222   6.868384   2.322841   0.000000
 Stoichiometry    C10H8O
 Framework group  C1[X(C10H8O)]
 Deg. of freedom    51
 Full point group                 C1      NOp   1
 Largest Abelian subgroup         C1      NOp   1
 Largest concise Abelian subgroup C1      NOp   1
                         Standard orientation:                         
 ---------------------------------------------------------------------
 Center     Atomic      Atomic             Coordinates (Angstroms)
 Number     Number       Type             X           Y           Z
 ---------------------------------------------------------------------
      1          6           0       -0.026307    0.425828   -0.006865
      2          6           0       -0.330547   -0.949664    0.005954
      3          6           0        1.349490    0.788673   -0.019786
      4          6           0        0.731335   -1.890736    0.008947
      5          6           0       -1.704418   -1.317568    0.006663
      6          6           0       -1.093539    1.369155   -0.015562
      7          6           0        2.342460   -0.133427   -0.012787
      8          8           0        1.594818    2.142781   -0.023154
      9          6           0        2.017272   -1.493936    0.003266
     10          1           0        0.534537   -2.799900    0.013999
     11          6           0       -2.688824   -0.401275    0.002043
     12          1           0       -1.928881   -2.219633    0.010002
     13          6           0       -2.391019    0.962240   -0.009318
     14          1           0       -0.899580    2.278644   -0.025838
     15          1           0        3.233088    0.136079   -0.018330
     16          1           0        1.024654    2.525179    0.425126
     17          1           0        2.696182   -2.129883    0.011007
     18          1           0       -3.576394   -0.678518    0.007015
     19          1           0       -3.077575    1.590042   -0.013068
 ---------------------------------------------------------------------
 Rotational constants (GHZ):           2.0024228           1.1590992           0.7345711
 Leave Link  202 at Mon Nov 21 14:55:41 2022, MaxMem= 16106127360 cpu:               0.2 elap:               0.0
 (Enter /opt/ap/G16/B01/g16/l301.exe)
 Standard basis: 6-311++G(d,p) (5D, 7F)
 Ernie: Thresh=  0.10000D-02 Tol=  0.10000D-05 Strict=F.
 There are   309 symmetry adapted cartesian basis functions of A   symmetry.
 There are   298 symmetry adapted basis functions of A   symmetry.
   298 basis functions,   468 primitive gaussians,   309 cartesian basis functions
    38 alpha electrons       38 beta electrons
       nuclear repulsion energy       563.3196289965 Hartrees.
 IExCor= 4639 DFT=T Ex+Corr=wB97XD ExCW=0 ScaHFX=  1.000000
 ScaDFX=  1.000000  1.000000  1.000000  1.000000 ScalE2=  1.000000  1.000000
 IRadAn=      5 IRanWt=     -1 IRanGd=            0 ICorTp=0 IEmpDi=121
 HFx  wShort=  0.000000 wLong=  0.200000 cFull=  0.222036 cShort=  0.000000 cLong=  0.777964
 DFx  wShort=  0.000000 wLong=  0.200000 cFull=  0.000000 cShort=  0.000000 cLong=  1.000000
 NAtoms=   19 NActive=   19 NUniq=   19 SFac= 1.00D+00 NAtFMM=   60 NAOKFM=F Big=F
 Integral buffers will be    131072 words long.
 Raffenetti 2 integral format.
 Two-electron integral symmetry is turned on.
 R6Disp:  Grimme-D2 Dispersion energy=       -0.0102707934 Hartrees.
 Nuclear repulsion after empirical dispersion term =      563.3093582032 Hartrees.
 Leave Link  301 at Mon Nov 21 14:55:41 2022, MaxMem= 16106127360 cpu:               1.2 elap:               0.0
 (Enter /opt/ap/G16/B01/g16/l302.exe)
 NPDir=0 NMtPBC=     1 NCelOv=     1 NCel=       1 NClECP=     1 NCelD=      1
         NCelK=      1 NCelE2=     1 NClLst=     1 CellRange=     0.0.
 One-electron integrals computed using PRISM.
 One-electron integral symmetry used in STVInt
 NBasis=   298 RedAO= T EigKep=  1.20D-06  NBF=   298
 NBsUse=   296 1.00D-06 EigRej=  6.40D-07 NBFU=   296
 Precomputing XC quadrature grid using
 IXCGrd= 4 IRadAn=           5 IRanWt=          -1 IRanGd=           0 AccXCQ= 0.00D+00.
 Generated NRdTot=       0 NPtTot=           0 NUsed=           0 NTot=          32
 NSgBfM=   309   309   309   309   309 MxSgAt=    19 MxSgA2=    19.
 Leave Link  302 at Mon Nov 21 14:55:41 2022, MaxMem= 16106127360 cpu:               6.5 elap:               0.2
 (Enter /opt/ap/G16/B01/g16/l303.exe)
 DipDrv:  MaxL=1.
 Leave Link  303 at Mon Nov 21 14:55:41 2022, MaxMem= 16106127360 cpu:               1.4 elap:               0.0
 (Enter /opt/ap/G16/B01/g16/l401.exe)
 ExpMin= 3.60D-02 ExpMax= 8.59D+03 ExpMxC= 1.30D+03 IAcc=3 IRadAn=         5 AccDes= 0.00D+00
 Harris functional with IExCor= 4639 and IRadAn=       5 diagonalized for initial guess.
 HarFok:  IExCor= 4639 AccDes= 0.00D+00 IRadAn=         5 IDoV= 1 UseB2=F ITyADJ=14
 ICtDFT=  3500011 ScaDFX=  1.000000  1.000000  1.000000  1.000000
 FoFCou: FMM=F IPFlag=           0 FMFlag=      100000 FMFlg1=           0
         NFxFlg=           0 DoJE=T BraDBF=F KetDBF=T FulRan=T
         wScrn=  0.000000 ICntrl=       500 IOpCl=  0 I1Cent=   200000004 NGrid=           0
         NMat0=    1 NMatS0=      1 NMatT0=    0 NMatD0=    1 NMtDS0=    0 NMtDT0=    0
 Petite list used in FoFCou.
 Harris En= -440.613161957682    
 JPrj=0 DoOrth=F DoCkMO=F.
 Leave Link  401 at Mon Nov 21 14:55:42 2022, MaxMem= 16106127360 cpu:              16.7 elap:               0.5
 (Enter /opt/ap/G16/B01/g16/l502.exe)
 Integral symmetry usage will be decided dynamically.
 Closed shell SCF:
 Using DIIS extrapolation, IDIIS=  1040.
 NGot= 16106127360 LenX= 16105923535 LenY= 16105827613
 Requested convergence on RMS density matrix=1.00D-08 within 512 cycles.
 Requested convergence on MAX density matrix=1.00D-06.
 Requested convergence on             energy=1.00D-06.
 No special actions if energy rises.
 Fock matrices will be formed incrementally for  20 cycles.

 Cycle   1  Pass 1  IDiag  1:
 FoFJK:  IHMeth= 1 ICntrl=       0 DoSepK=T KAlg= 0 I1Cent=           0 FoldK=F
 IRaf=         1 NMat=       1 IRICut=       1 DoRegI=T DoRafI=F ISym2E= 0 IDoP0=0 IntGTp=1.
 FoFCou: FMM=F IPFlag=           0 FMFlag=      100000 FMFlg1=           0
         NFxFlg=           0 DoJE=T BraDBF=F KetDBF=F FulRan=T
         wScrn=  0.000000 ICntrl=       500 IOpCl=  0 I1Cent=           0 NGrid=           0
         NMat0=    1 NMatS0=      1 NMatT0=    0 NMatD0=    1 NMtDS0=    0 NMtDT0=    0
 Symmetry not used in FoFCou.
 E= -460.748488170642    
 DIIS: error= 5.91D-02 at cycle   1 NSaved=   1.
 NSaved= 1 IEnMin= 1 EnMin= -460.748488170642     IErMin= 1 ErrMin= 5.91D-02
 ErrMax= 5.91D-02  0.00D+00 EMaxC= 1.00D-01 BMatC= 9.59D-01 BMatP= 9.59D-01
 IDIUse=3 WtCom= 4.09D-01 WtEn= 5.91D-01
 Coeff-Com:  0.100D+01
 Coeff-En:   0.100D+01
 Coeff:      0.100D+01
 Gap=     0.335 Goal=   None    Shift=    0.000
 GapD=    0.335 DampG=1.000 DampE=0.500 DampFc=0.5000 IDamp=-1.
 Damping current iteration by 5.00D-01
 RMSDP=4.74D-02 MaxDP=5.09D+00              OVMax= 1.49D-01

 Cycle   2  Pass 1  IDiag  1:
 RMSU=  9.61D-03    CP:  8.15D-01
 E= -460.816605184502     Delta-E=       -0.068117013860 Rises=F Damp=T
 DIIS: error= 2.96D-02 at cycle   2 NSaved=   2.
 NSaved= 2 IEnMin= 2 EnMin= -460.816605184502     IErMin= 2 ErrMin= 2.96D-02
 ErrMax= 2.96D-02  0.00D+00 EMaxC= 1.00D-01 BMatC= 2.08D-01 BMatP= 9.59D-01
 IDIUse=3 WtCom= 7.04D-01 WtEn= 2.96D-01
 Coeff-Com: -0.705D+00 0.170D+01
 Coeff-En:   0.000D+00 0.100D+01
 Coeff:     -0.496D+00 0.150D+01
 Gap=     0.331 Goal=   None    Shift=    0.000
 RMSDP=2.72D-02 MaxDP=3.04D+00 DE=-6.81D-02 OVMax= 1.46D-01

 Cycle   3  Pass 1  IDiag  1:
 RMSU=  6.07D-03    CP:  5.91D-01  1.38D+00
 E= -460.861222666224     Delta-E=       -0.044617481722 Rises=F Damp=F
 DIIS: error= 1.10D-02 at cycle   3 NSaved=   3.
 NSaved= 3 IEnMin= 3 EnMin= -460.861222666224     IErMin= 3 ErrMin= 1.10D-02
 ErrMax= 1.10D-02  0.00D+00 EMaxC= 1.00D-01 BMatC= 2.95D-02 BMatP= 2.08D-01
 IDIUse=3 WtCom= 8.90D-01 WtEn= 1.10D-01
 Coeff-Com: -0.359D+00 0.764D+00 0.595D+00
 Coeff-En:   0.000D+00 0.000D+00 0.100D+01
 Coeff:     -0.319D+00 0.680D+00 0.640D+00
 Gap=     0.313 Goal=   None    Shift=    0.000
 RMSDP=4.02D-03 MaxDP=3.71D-01 DE=-4.46D-02 OVMax= 6.61D-02

 Cycle   4  Pass 1  IDiag  1:
 RMSU=  1.48D-03    CP:  5.71D-01  1.54D+00  5.93D-01
 E= -460.887459740272     Delta-E=       -0.026237074048 Rises=F Damp=F
 DIIS: error= 1.56D-03 at cycle   4 NSaved=   4.
 NSaved= 4 IEnMin= 4 EnMin= -460.887459740272     IErMin= 4 ErrMin= 1.56D-03
 ErrMax= 1.56D-03  0.00D+00 EMaxC= 1.00D-01 BMatC= 1.04D-03 BMatP= 2.95D-02
 IDIUse=3 WtCom= 9.84D-01 WtEn= 1.56D-02
 Coeff-Com: -0.122D+00 0.260D+00 0.290D+00 0.572D+00
 Coeff-En:   0.000D+00 0.000D+00 0.000D+00 0.100D+01
 Coeff:     -0.120D+00 0.256D+00 0.286D+00 0.578D+00
 Gap=     0.306 Goal=   None    Shift=    0.000
 RMSDP=5.48D-04 MaxDP=2.98D-02 DE=-2.62D-02 OVMax= 8.71D-03

 Cycle   5  Pass 1  IDiag  1:
 RMSU=  3.65D-04    CP:  5.71D-01  1.55D+00  6.45D-01  8.28D-01
 E= -460.888422218671     Delta-E=       -0.000962478399 Rises=F Damp=F
 DIIS: error= 2.82D-04 at cycle   5 NSaved=   5.
 NSaved= 5 IEnMin= 5 EnMin= -460.888422218671     IErMin= 5 ErrMin= 2.82D-04
 ErrMax= 2.82D-04  0.00D+00 EMaxC= 1.00D-01 BMatC= 1.70D-05 BMatP= 1.04D-03
 IDIUse=3 WtCom= 9.97D-01 WtEn= 2.82D-03
 Coeff-Com:  0.984D-02-0.206D-01 0.707D-02 0.134D+00 0.870D+00
 Coeff-En:   0.000D+00 0.000D+00 0.000D+00 0.000D+00 0.100D+01
 Coeff:      0.981D-02-0.206D-01 0.705D-02 0.133D+00 0.871D+00
 Gap=     0.306 Goal=   None    Shift=    0.000
 RMSDP=2.38D-04 MaxDP=1.10D-02 DE=-9.62D-04 OVMax= 3.09D-03

 Cycle   6  Pass 1  IDiag  1:
 RMSU=  2.01D-04    CP:  5.71D-01  1.56D+00  6.51D-01  8.35D-01  1.02D+00
 E= -460.888447127306     Delta-E=       -0.000024908635 Rises=F Damp=F
 DIIS: error= 1.74D-04 at cycle   6 NSaved=   6.
 NSaved= 6 IEnMin= 6 EnMin= -460.888447127306     IErMin= 6 ErrMin= 1.74D-04
 ErrMax= 1.74D-04  0.00D+00 EMaxC= 1.00D-01 BMatC= 4.15D-06 BMatP= 1.70D-05
 IDIUse=3 WtCom= 9.98D-01 WtEn= 1.74D-03
 Coeff-Com:  0.169D-01-0.362D-01-0.258D-01-0.666D-02 0.358D+00 0.694D+00
 Coeff-En:   0.000D+00 0.000D+00 0.000D+00 0.000D+00 0.000D+00 0.100D+01
 Coeff:      0.169D-01-0.361D-01-0.258D-01-0.665D-02 0.357D+00 0.694D+00
 Gap=     0.306 Goal=   None    Shift=    0.000
 RMSDP=1.28D-04 MaxDP=1.16D-02 DE=-2.49D-05 OVMax= 1.05D-03

 Cycle   7  Pass 1  IDiag  1:
 RMSU=  5.28D-05    CP:  5.70D-01  1.56D+00  6.51D-01  8.52D-01  1.13D+00
                    CP:  9.35D-01
 E= -460.888453083681     Delta-E=       -0.000005956375 Rises=F Damp=F
 DIIS: error= 6.17D-05 at cycle   7 NSaved=   7.
 NSaved= 7 IEnMin= 7 EnMin= -460.888453083681     IErMin= 7 ErrMin= 6.17D-05
 ErrMax= 6.17D-05  0.00D+00 EMaxC= 1.00D-01 BMatC= 3.07D-07 BMatP= 4.15D-06
 IDIUse=1 WtCom= 1.00D+00 WtEn= 0.00D+00
 Coeff-Com:  0.127D-02-0.269D-02-0.285D-02-0.148D-01-0.591D-01 0.885D-01
 Coeff-Com:  0.990D+00
 Coeff:      0.127D-02-0.269D-02-0.285D-02-0.148D-01-0.591D-01 0.885D-01
 Coeff:      0.990D+00
 Gap=     0.306 Goal=   None    Shift=    0.000
 RMSDP=3.05D-05 MaxDP=1.98D-03 DE=-5.96D-06 OVMax= 7.51D-04

 Cycle   8  Pass 1  IDiag  1:
 RMSU=  1.72D-05    CP:  5.70D-01  1.56D+00  6.51D-01  8.51D-01  1.14D+00
                    CP:  9.82D-01  1.13D+00
 E= -460.888454064805     Delta-E=       -0.000000981124 Rises=F Damp=F
 DIIS: error= 2.36D-05 at cycle   8 NSaved=   8.
 NSaved= 8 IEnMin= 8 EnMin= -460.888454064805     IErMin= 8 ErrMin= 2.36D-05
 ErrMax= 2.36D-05  0.00D+00 EMaxC= 1.00D-01 BMatC= 9.68D-08 BMatP= 3.07D-07
 IDIUse=1 WtCom= 1.00D+00 WtEn= 0.00D+00
 Coeff-Com: -0.215D-02 0.464D-02 0.338D-02-0.414D-02-0.836D-01-0.828D-01
 Coeff-Com:  0.424D+00 0.741D+00
 Coeff:     -0.215D-02 0.464D-02 0.338D-02-0.414D-02-0.836D-01-0.828D-01
 Coeff:      0.424D+00 0.741D+00
 Gap=     0.306 Goal=   None    Shift=    0.000
 RMSDP=1.30D-05 MaxDP=8.70D-04 DE=-9.81D-07 OVMax= 2.52D-04

 Cycle   9  Pass 1  IDiag  1:
 RMSU=  6.97D-06    CP:  5.70D-01  1.56D+00  6.51D-01  8.49D-01  1.14D+00
                    CP:  1.02D+00  1.20D+00  1.10D+00
 E= -460.888454263647     Delta-E=       -0.000000198842 Rises=F Damp=F
 DIIS: error= 9.84D-06 at cycle   9 NSaved=   9.
 NSaved= 9 IEnMin= 9 EnMin= -460.888454263647     IErMin= 9 ErrMin= 9.84D-06
 ErrMax= 9.84D-06  0.00D+00 EMaxC= 1.00D-01 BMatC= 6.62D-09 BMatP= 9.68D-08
 IDIUse=1 WtCom= 1.00D+00 WtEn= 0.00D+00
 Coeff-Com: -0.690D-03 0.148D-02 0.133D-02 0.150D-02-0.114D-01-0.361D-01
 Coeff-Com: -0.509D-01 0.118D+00 0.977D+00
 Coeff:     -0.690D-03 0.148D-02 0.133D-02 0.150D-02-0.114D-01-0.361D-01
 Coeff:     -0.509D-01 0.118D+00 0.977D+00
 Gap=     0.306 Goal=   None    Shift=    0.000
 RMSDP=4.79D-06 MaxDP=5.48D-04 DE=-1.99D-07 OVMax= 1.39D-04

 Cycle  10  Pass 1  IDiag  1:
 RMSU=  2.77D-06    CP:  5.70D-01  1.56D+00  6.52D-01  8.48D-01  1.14D+00
                    CP:  1.02D+00  1.21D+00  1.25D+00  1.21D+00
 E= -460.888454293371     Delta-E=       -0.000000029724 Rises=F Damp=F
 DIIS: error= 4.01D-06 at cycle  10 NSaved=  10.
 NSaved=10 IEnMin=10 EnMin= -460.888454293371     IErMin=10 ErrMin= 4.01D-06
 ErrMax= 4.01D-06  0.00D+00 EMaxC= 1.00D-01 BMatC= 1.01D-09 BMatP= 6.62D-09
 IDIUse=1 WtCom= 1.00D+00 WtEn= 0.00D+00
 Coeff-Com:  0.863D-04-0.189D-03-0.509D-04 0.935D-03 0.705D-02 0.102D-02
 Coeff-Com: -0.530D-01-0.750D-01 0.221D+00 0.898D+00
 Coeff:      0.863D-04-0.189D-03-0.509D-04 0.935D-03 0.705D-02 0.102D-02
 Coeff:     -0.530D-01-0.750D-01 0.221D+00 0.898D+00
 Gap=     0.306 Goal=   None    Shift=    0.000
 RMSDP=1.81D-06 MaxDP=9.10D-05 DE=-2.97D-08 OVMax= 4.32D-05

 Cycle  11  Pass 1  IDiag  1:
 RMSU=  7.10D-07    CP:  5.70D-01  1.56D+00  6.52D-01  8.48D-01  1.14D+00
                    CP:  1.02D+00  1.20D+00  1.28D+00  1.32D+00  1.17D+00
 E= -460.888454296900     Delta-E=       -0.000000003529 Rises=F Damp=F
 DIIS: error= 1.24D-06 at cycle  11 NSaved=  11.
 NSaved=11 IEnMin=11 EnMin= -460.888454296900     IErMin=11 ErrMin= 1.24D-06
 ErrMax= 1.24D-06  0.00D+00 EMaxC= 1.00D-01 BMatC= 2.30D-10 BMatP= 1.01D-09
 IDIUse=1 WtCom= 1.00D+00 WtEn= 0.00D+00
 Coeff-Com:  0.137D-03-0.295D-03-0.227D-03 0.108D-03 0.414D-02 0.530D-02
 Coeff-Com: -0.932D-02-0.468D-01-0.778D-01 0.326D+00 0.799D+00
 Coeff:      0.137D-03-0.295D-03-0.227D-03 0.108D-03 0.414D-02 0.530D-02
 Coeff:     -0.932D-02-0.468D-01-0.778D-01 0.326D+00 0.799D+00
 Gap=     0.306 Goal=   None    Shift=    0.000
 RMSDP=6.65D-07 MaxDP=4.03D-05 DE=-3.53D-09 OVMax= 1.60D-05

 Cycle  12  Pass 1  IDiag  1:
 RMSU=  3.10D-07    CP:  5.70D-01  1.56D+00  6.52D-01  8.48D-01  1.14D+00
                    CP:  1.02D+00  1.20D+00  1.30D+00  1.35D+00  1.22D+00
                    CP:  1.12D+00
 E= -460.888454297527     Delta-E=       -0.000000000627 Rises=F Damp=F
 DIIS: error= 5.57D-07 at cycle  12 NSaved=  12.
 NSaved=12 IEnMin=12 EnMin= -460.888454297527     IErMin=12 ErrMin= 5.57D-07
 ErrMax= 5.57D-07  0.00D+00 EMaxC= 1.00D-01 BMatC= 1.52D-11 BMatP= 2.30D-10
 IDIUse=1 WtCom= 1.00D+00 WtEn= 0.00D+00
 Coeff-Com: -0.598D-05 0.136D-04-0.522D-05-0.126D-03-0.801D-03-0.180D-03
 Coeff-Com:  0.777D-02 0.102D-01-0.386D-01-0.119D+00-0.297D-01 0.117D+01
 Coeff:     -0.598D-05 0.136D-04-0.522D-05-0.126D-03-0.801D-03-0.180D-03
 Coeff:      0.777D-02 0.102D-01-0.386D-01-0.119D+00-0.297D-01 0.117D+01
 Gap=     0.306 Goal=   None    Shift=    0.000
 RMSDP=2.41D-07 MaxDP=8.61D-06 DE=-6.27D-10 OVMax= 8.57D-06

 Cycle  13  Pass 1  IDiag  1:
 RMSU=  1.18D-07    CP:  5.70D-01  1.56D+00  6.52D-01  8.48D-01  1.14D+00
                    CP:  1.02D+00  1.20D+00  1.30D+00  1.35D+00  1.23D+00
                    CP:  1.29D+00  1.27D+00
 E= -460.888454297620     Delta-E=       -0.000000000093 Rises=F Damp=F
 DIIS: error= 1.30D-07 at cycle  13 NSaved=  13.
 NSaved=13 IEnMin=13 EnMin= -460.888454297620     IErMin=13 ErrMin= 1.30D-07
 ErrMax= 1.30D-07  0.00D+00 EMaxC= 1.00D-01 BMatC= 3.48D-12 BMatP= 1.52D-11
 IDIUse=1 WtCom= 1.00D+00 WtEn= 0.00D+00
 Coeff-Com: -0.123D-04 0.268D-04 0.153D-04-0.537D-04-0.578D-03-0.497D-03
 Coeff-Com:  0.341D-02 0.795D-02-0.494D-02-0.643D-01-0.803D-01 0.399D+00
 Coeff-Com:  0.741D+00
 Coeff:     -0.123D-04 0.268D-04 0.153D-04-0.537D-04-0.578D-03-0.497D-03
 Coeff:      0.341D-02 0.795D-02-0.494D-02-0.643D-01-0.803D-01 0.399D+00
 Coeff:      0.741D+00
 Gap=     0.306 Goal=   None    Shift=    0.000
 RMSDP=8.86D-08 MaxDP=4.53D-06 DE=-9.35D-11 OVMax= 1.74D-06

 Cycle  14  Pass 1  IDiag  1:
 RMSU=  3.53D-08    CP:  5.70D-01  1.56D+00  6.52D-01  8.48D-01  1.14D+00
                    CP:  1.02D+00  1.21D+00  1.29D+00  1.35D+00  1.23D+00
                    CP:  1.30D+00  1.33D+00  1.24D+00
 E= -460.888454297628     Delta-E=       -0.000000000008 Rises=F Damp=F
 DIIS: error= 8.63D-08 at cycle  14 NSaved=  14.
 NSaved=14 IEnMin=14 EnMin= -460.888454297628     IErMin=14 ErrMin= 8.63D-08
 ErrMax= 8.63D-08  0.00D+00 EMaxC= 1.00D-01 BMatC= 5.43D-13 BMatP= 3.48D-12
 IDIUse=1 WtCom= 1.00D+00 WtEn= 0.00D+00
 Coeff-Com: -0.251D-05 0.528D-05 0.497D-05 0.626D-05 0.328D-05-0.115D-03
 Coeff-Com: -0.883D-03 0.250D-03 0.618D-02 0.655D-02-0.165D-01-0.147D+00
 Coeff-Com:  0.181D+00 0.970D+00
 Coeff:     -0.251D-05 0.528D-05 0.497D-05 0.626D-05 0.328D-05-0.115D-03
 Coeff:     -0.883D-03 0.250D-03 0.618D-02 0.655D-02-0.165D-01-0.147D+00
 Coeff:      0.181D+00 0.970D+00
 Gap=     0.306 Goal=   None    Shift=    0.000
 RMSDP=6.69D-08 MaxDP=4.01D-06 DE=-7.50D-12 OVMax= 1.42D-06

 Cycle  15  Pass 1  IDiag  1:
 RMSU=  2.90D-08    CP:  5.70D-01  1.56D+00  6.52D-01  8.48D-01  1.14D+00
                    CP:  1.02D+00  1.21D+00  1.29D+00  1.35D+00  1.22D+00
                    CP:  1.30D+00  1.33D+00  1.49D+00  1.35D+00
 E= -460.888454297629     Delta-E=       -0.000000000002 Rises=F Damp=F
 DIIS: error= 3.06D-08 at cycle  15 NSaved=  15.
 NSaved=15 IEnMin=15 EnMin= -460.888454297629     IErMin=15 ErrMin= 3.06D-08
 ErrMax= 3.06D-08  0.00D+00 EMaxC= 1.00D-01 BMatC= 1.06D-13 BMatP= 5.43D-13
 IDIUse=1 WtCom= 1.00D+00 WtEn= 0.00D+00
 Coeff-Com:  0.232D-06-0.582D-06 0.356D-06 0.773D-05 0.627D-04 0.147D-04
 Coeff-Com: -0.667D-03-0.675D-03 0.224D-02 0.861D-02 0.523D-02-0.893D-01
 Coeff-Com: -0.509D-01 0.313D+00 0.812D+00
 Coeff:      0.232D-06-0.582D-06 0.356D-06 0.773D-05 0.627D-04 0.147D-04
 Coeff:     -0.667D-03-0.675D-03 0.224D-02 0.861D-02 0.523D-02-0.893D-01
 Coeff:     -0.509D-01 0.313D+00 0.812D+00
 Gap=     0.306 Goal=   None    Shift=    0.000
 RMSDP=2.04D-08 MaxDP=1.29D-06 DE=-1.59D-12 OVMax= 4.16D-07

 Cycle  16  Pass 1  IDiag  1:
 RMSU=  6.60D-09    CP:  5.70D-01  1.56D+00  6.52D-01  8.48D-01  1.14D+00
                    CP:  1.02D+00  1.21D+00  1.29D+00  1.35D+00  1.22D+00
                    CP:  1.30D+00  1.33D+00  1.57D+00  1.54D+00  1.28D+00
 E= -460.888454297632     Delta-E=       -0.000000000003 Rises=F Damp=F
 DIIS: error= 1.84D-08 at cycle  16 NSaved=  16.
 NSaved=16 IEnMin=16 EnMin= -460.888454297632     IErMin=16 ErrMin= 1.84D-08
 ErrMax= 1.84D-08  0.00D+00 EMaxC= 1.00D-01 BMatC= 2.37D-14 BMatP= 1.06D-13
 IDIUse=1 WtCom= 1.00D+00 WtEn= 0.00D+00
 Coeff-Com:  0.591D-06-0.128D-05-0.966D-06 0.130D-05 0.239D-04 0.349D-04
 Coeff-Com: -0.721D-04-0.315D-03-0.525D-03 0.196D-02 0.744D-02-0.365D-02
 Coeff-Com: -0.762D-01-0.893D-01 0.327D+00 0.833D+00
 Coeff:      0.591D-06-0.128D-05-0.966D-06 0.130D-05 0.239D-04 0.349D-04
 Coeff:     -0.721D-04-0.315D-03-0.525D-03 0.196D-02 0.744D-02-0.365D-02
 Coeff:     -0.762D-01-0.893D-01 0.327D+00 0.833D+00
 Gap=     0.306 Goal=   None    Shift=    0.000
 RMSDP=8.69D-09 MaxDP=7.20D-07 DE=-2.50D-12 OVMax= 2.24D-07

 SCF Done:  E(RwB97XD) =  -460.888454298     A.U. after   16 cycles
            NFock= 16  Conv=0.87D-08     -V/T= 1.9983
 KE= 4.616741577024D+02 PE=-2.201010059367D+03 EE= 7.151380891639D+02
 Leave Link  502 at Mon Nov 21 14:56:04 2022, MaxMem= 16106127360 cpu:             717.4 elap:              22.5
 (Enter /opt/ap/G16/B01/g16/l601.exe)
 Copying SCF densities to generalized density rwf, IOpCl= 0 IROHF=0.

 **********************************************************************

            Population analysis using the SCF Density.

 **********************************************************************

 Orbital symmetries:
       Occupied  (A) (A) (A) (A) (A) (A) (A) (A) (A) (A) (A) (A)
                 (A) (A) (A) (A) (A) (A) (A) (A) (A) (A) (A) (A)
                 (A) (A) (A) (A) (A) (A) (A) (A) (A) (A) (A) (A)
                 (A) (A)
       Virtual   (A) (A) (A) (A) (A) (A) (A) (A) (A) (A) (A) (A)
                 (A) (A) (A) (A) (A) (A) (A) (A) (A) (A) (A) (A)
                 (A) (A) (A) (A) (A) (A) (A) (A) (A) (A) (A) (A)
                 (A) (A) (A) (A) (A) (A) (A) (A) (A) (A) (A) (A)
                 (A) (A) (A) (A) (A) (A) (A) (A) (A) (A) (A) (A)
                 (A) (A) (A) (A) (A) (A) (A) (A) (A) (A) (A) (A)
                 (A) (A) (A) (A) (A) (A) (A) (A) (A) (A) (A) (A)
                 (A) (A) (A) (A) (A) (A) (A) (A) (A) (A) (A) (A)
                 (A) (A) (A) (A) (A) (A) (A) (A) (A) (A) (A) (A)
                 (A) (A) (A) (A) (A) (A) (A) (A) (A) (A) (A) (A)
                 (A) (A) (A) (A) (A) (A) (A) (A) (A) (A) (A) (A)
                 (A) (A) (A) (A) (A) (A) (A) (A) (A) (A) (A) (A)
                 (A) (A) (A) (A) (A) (A) (A) (A) (A) (A) (A) (A)
                 (A) (A) (A) (A) (A) (A) (A) (A) (A) (A) (A) (A)
                 (A) (A) (A) (A) (A) (A) (A) (A) (A) (A) (A) (A)
                 (A) (A) (A) (A) (A) (A) (A) (A) (A) (A) (A) (A)
                 (A) (A) (A) (A) (A) (A) (A) (A) (A) (A) (A) (A)
                 (A) (A) (A) (A) (A) (A) (A) (A) (A) (A) (A) (A)
                 (A) (A) (A) (A) (A) (A) (A) (A) (A) (A) (A) (A)
                 (A) (A) (A) (A) (A) (A) (A) (A) (A) (A) (A) (A)
                 (A) (A) (A) (A) (A) (A) (A) (A) (A) (A) (A) (A)
                 (A) (A) (A) (A) (A) (A)
 The electronic state is 1-A.
 Alpha  occ. eigenvalues --  -19.26231 -10.35093 -10.29986 -10.29879 -10.28078
 Alpha  occ. eigenvalues --  -10.27509 -10.27383 -10.27190 -10.27104 -10.26718
 Alpha  occ. eigenvalues --  -10.26590  -1.19791  -0.99013  -0.94479  -0.88744
 Alpha  occ. eigenvalues --   -0.86459  -0.84608  -0.75512  -0.73879  -0.72437
 Alpha  occ. eigenvalues --   -0.67614  -0.64706  -0.61612  -0.60439  -0.55894
 Alpha  occ. eigenvalues --   -0.54985  -0.52867  -0.52253  -0.51615  -0.48700
 Alpha  occ. eigenvalues --   -0.47934  -0.45691  -0.43756  -0.42543  -0.41497
 Alpha  occ. eigenvalues --   -0.35876  -0.32904  -0.28992
 Alpha virt. eigenvalues --    0.01626   0.03895   0.04285   0.04671   0.05005
 Alpha virt. eigenvalues --    0.06287   0.06536   0.08396   0.08747   0.09183
 Alpha virt. eigenvalues --    0.10349   0.11461   0.12131   0.12953   0.13846
 Alpha virt. eigenvalues --    0.14949   0.15006   0.15504   0.15906   0.16243
 Alpha virt. eigenvalues --    0.16644   0.17166   0.17552   0.17873   0.18313
 Alpha virt. eigenvalues --    0.18793   0.19049   0.19191   0.19989   0.20637
 Alpha virt. eigenvalues --    0.21762   0.21785   0.22346   0.22553   0.22962
 Alpha virt. eigenvalues --    0.24720   0.25784   0.25956   0.26138   0.26963
 Alpha virt. eigenvalues --    0.27315   0.28808   0.29205   0.29580   0.29995
 Alpha virt. eigenvalues --    0.30918   0.31420   0.31781   0.32412   0.32731
 Alpha virt. eigenvalues --    0.33873   0.34806   0.34894   0.35303   0.35458
 Alpha virt. eigenvalues --    0.36062   0.37177   0.37688   0.38675   0.39378
 Alpha virt. eigenvalues --    0.40098   0.40785   0.41618   0.42590   0.43126
 Alpha virt. eigenvalues --    0.43968   0.44552   0.46824   0.47350   0.47842
 Alpha virt. eigenvalues --    0.50498   0.57055   0.58119   0.59754   0.61115
 Alpha virt. eigenvalues --    0.61802   0.62280   0.65068   0.65616   0.65787
 Alpha virt. eigenvalues --    0.66688   0.67384   0.68028   0.68503   0.70031
 Alpha virt. eigenvalues --    0.70437   0.71008   0.71600   0.71862   0.72504
 Alpha virt. eigenvalues --    0.74149   0.75512   0.76578   0.78251   0.81588
 Alpha virt. eigenvalues --    0.81892   0.83022   0.84521   0.86341   0.87430
 Alpha virt. eigenvalues --    0.89246   0.90163   0.91233   0.92334   0.93179
 Alpha virt. eigenvalues --    0.95542   0.96048   0.97136   0.99430   1.00518
 Alpha virt. eigenvalues --    1.01740   1.02175   1.04325   1.04576   1.05770
 Alpha virt. eigenvalues --    1.06337   1.06614   1.09549   1.11983   1.13304
 Alpha virt. eigenvalues --    1.13885   1.14204   1.18714   1.19453   1.20020
 Alpha virt. eigenvalues --    1.20496   1.22724   1.23509   1.24087   1.24579
 Alpha virt. eigenvalues --    1.27389   1.32788   1.34262   1.43229   1.45966
 Alpha virt. eigenvalues --    1.48346   1.56119   1.57303   1.58692   1.59676
 Alpha virt. eigenvalues --    1.61569   1.61904   1.63022   1.65279   1.68546
 Alpha virt. eigenvalues --    1.69819   1.70661   1.70802   1.73481   1.75971
 Alpha virt. eigenvalues --    1.76883   1.79568   1.80419   1.80974   1.84698
 Alpha virt. eigenvalues --    1.89487   1.90089   1.91958   1.92683   1.93342
 Alpha virt. eigenvalues --    1.95980   1.97261   1.99589   1.99966   2.03198
 Alpha virt. eigenvalues --    2.04008   2.05334   2.07627   2.08593   2.09380
 Alpha virt. eigenvalues --    2.09834   2.11566   2.13025   2.15845   2.18813
 Alpha virt. eigenvalues --    2.24647   2.26217   2.27922   2.31163   2.34602
 Alpha virt. eigenvalues --    2.37413   2.39328   2.40407   2.46984   2.50915
 Alpha virt. eigenvalues --    2.52597   2.53219   2.54045   2.56162   2.59621
 Alpha virt. eigenvalues --    2.66340   2.67164   2.72412   2.74369   2.75976
 Alpha virt. eigenvalues --    2.80315   2.81501   2.84046   2.88260   2.88322
 Alpha virt. eigenvalues --    2.92807   2.93659   2.95359   2.99091   3.01252
 Alpha virt. eigenvalues --    3.02591   3.03386   3.04488   3.06538   3.07308
 Alpha virt. eigenvalues --    3.08387   3.11831   3.17643   3.18487   3.19546
 Alpha virt. eigenvalues --    3.21991   3.23379   3.27364   3.32297   3.35282
 Alpha virt. eigenvalues --    3.38016   3.39975   3.48446   3.49399   3.53293
 Alpha virt. eigenvalues --    3.55504   3.61572   3.73904   3.77348   3.79018
 Alpha virt. eigenvalues --    3.83947   3.88679   3.90385   3.99425   4.17786
 Alpha virt. eigenvalues --    4.28075   4.43330   4.44578   4.45843   4.52218
 Alpha virt. eigenvalues --    4.57418   4.61999   4.94195   4.97298   5.18195
 Alpha virt. eigenvalues --    5.62068   6.18372  23.80248  24.05988  24.15352
 Alpha virt. eigenvalues --   24.17246  24.21942  24.26044  24.41164  24.43993
 Alpha virt. eigenvalues --   24.51699  24.53278  50.18363
          Condensed to atoms (all electrons):
               1          2          3          4          5          6
     1  C   26.637152  -7.155409  -3.660075  -5.065097  -1.667908  -0.217158
     2  C   -7.155409  23.430574  -2.654954   1.146438  -3.533841  -5.488621
     3  C   -3.660075  -2.654954  11.125000   1.931554   0.215446  -0.202048
     4  C   -5.065097   1.146438   1.931554   9.485814  -0.385064  -0.913501
     5  C   -1.667908  -3.533841   0.215446  -0.385064   9.372671   2.502783
     6  C   -0.217158  -5.488621  -0.202048  -0.913501   2.502783  11.718381
     7  C   -2.659541   0.516638   0.524718  -0.609547   0.175727  -0.265999
     8  O    0.108030  -0.227167   0.180775  -0.009799  -0.015927   0.252279
     9  C    1.487838  -1.138254  -0.827736  -0.006445  -0.074122   0.476857
    10  H   -0.168113   0.092468   0.052025   0.502750   0.016527  -0.063841
    11  C   -0.618869   0.417935   0.271023   0.036369   0.032501  -1.269027
    12  H    0.025239  -0.087866  -0.053906   0.001838   0.489996   0.081391
    13  C   -1.302847   1.016522  -0.632352   0.335450  -0.902416  -0.860529
    14  H   -0.189470  -0.035493  -0.077350  -0.002371   0.043450   0.434274
    15  H   -0.151255   0.041654  -0.079251   0.031628  -0.025484  -0.011030
    16  H   -0.250060   0.026875   0.186154   0.010634  -0.016801  -0.078862
    17  H    0.170040  -0.073183  -0.008591  -0.131445   0.017890   0.015628
    18  H   -0.031399   0.048975  -0.014235   0.023006  -0.059838  -0.041128
    19  H    0.052423  -0.045187   0.026132  -0.019645  -0.022163  -0.024063
               7          8          9         10         11         12
     1  C   -2.659541   0.108030   1.487838  -0.168113  -0.618869   0.025239
     2  C    0.516638  -0.227167  -1.138254   0.092468   0.417935  -0.087866
     3  C    0.524718   0.180775  -0.827736   0.052025   0.271023  -0.053906
     4  C   -0.609547  -0.009799  -0.006445   0.502750   0.036369   0.001838
     5  C    0.175727  -0.015927  -0.074122   0.016527   0.032501   0.489996
     6  C   -0.265999   0.252279   0.476857  -0.063841  -1.269027   0.081391
     7  C    8.353699  -0.519718  -0.004145   0.032545   0.090687  -0.011104
     8  O   -0.519718   8.050319   0.037000  -0.000687   0.003614   0.000463
     9  C   -0.004145   0.037000   6.175730  -0.129903  -0.334941   0.057436
    10  H    0.032545  -0.000687  -0.129903   0.501977   0.050944  -0.003745
    11  C    0.090687   0.003614  -0.334941   0.050944   6.531794  -0.134768
    12  H   -0.011104   0.000463   0.057436  -0.003745  -0.134768   0.504942
    13  C   -0.272271   0.171254   0.028459  -0.001453   0.681574   0.000272
    14  H   -0.013542   0.026082  -0.004250   0.000577   0.031123   0.000132
    15  H    0.615263  -0.041144  -0.080657   0.003409   0.000932  -0.001137
    16  H    0.200467   0.222071  -0.005836   0.000933   0.002663  -0.000142
    17  H   -0.145429   0.003522   0.492803  -0.022050  -0.001760   0.002416
    18  H   -0.002641   0.000042   0.001508   0.000999   0.474118  -0.019610
    19  H    0.009365  -0.000433  -0.001579  -0.000448  -0.063279   0.001070
              13         14         15         16         17         18
     1  C   -1.302847  -0.189470  -0.151255  -0.250060   0.170040  -0.031399
     2  C    1.016522  -0.035493   0.041654   0.026875  -0.073183   0.048975
     3  C   -0.632352  -0.077350  -0.079251   0.186154  -0.008591  -0.014235
     4  C    0.335450  -0.002371   0.031628   0.010634  -0.131445   0.023006
     5  C   -0.902416   0.043450  -0.025484  -0.016801   0.017890  -0.059838
     6  C   -0.860529   0.434274  -0.011030  -0.078862   0.015628  -0.041128
     7  C   -0.272271  -0.013542   0.615263   0.200467  -0.145429  -0.002641
     8  O    0.171254   0.026082  -0.041144   0.222071   0.003522   0.000042
     9  C    0.028459  -0.004250  -0.080657  -0.005836   0.492803   0.001508
    10  H   -0.001453   0.000577   0.003409   0.000933  -0.022050   0.000999
    11  C    0.681574   0.031123   0.000932   0.002663  -0.001760   0.474118
    12  H    0.000272   0.000132  -0.001137  -0.000142   0.002416  -0.019610
    13  C    7.508017   0.137975   0.012609  -0.033691  -0.003478  -0.052453
    14  H    0.137975   0.621321   0.002227  -0.018908  -0.000497   0.000455
    15  H    0.012609   0.002227   0.498596   0.004326  -0.023949   0.000001
    16  H   -0.033691  -0.018908   0.004326   0.484018  -0.001238  -0.000083
    17  H   -0.003478  -0.000497  -0.023949  -0.001238   0.516350  -0.000050
    18  H   -0.052453   0.000455   0.000001  -0.000083  -0.000050   0.505908
    19  H    0.430497  -0.024486   0.000033   0.001207  -0.000036  -0.014101
              19
     1  C    0.052423
     2  C   -0.045187
     3  C    0.026132
     4  C   -0.019645
     5  C   -0.022163
     6  C   -0.024063
     7  C    0.009365
     8  O   -0.000433
     9  C   -0.001579
    10  H   -0.000448
    11  C   -0.063279
    12  H    0.001070
    13  C    0.430497
    14  H   -0.024486
    15  H    0.000033
    16  H    0.001207
    17  H   -0.000036
    18  H   -0.014101
    19  H    0.503679
 Mulliken charges:
               1
     1  C    0.656480
     2  C   -0.298106
     3  C   -0.302331
     4  C   -0.362567
     5  C   -0.163426
     6  C   -0.045786
     7  C   -0.015170
     8  O   -0.240577
     9  C   -0.149763
    10  H    0.135087
    11  C   -0.202632
    12  H    0.147082
    13  C   -0.261139
    14  H    0.068751
    15  H    0.203228
    16  H    0.266272
    17  H    0.193057
    18  H    0.180525
    19  H    0.191014
 Sum of Mulliken charges =  -0.00000
 Mulliken charges with hydrogens summed into heavy atoms:
               1
     1  C    0.656480
     2  C   -0.298106
     3  C   -0.302331
     4  C   -0.227479
     5  C   -0.016344
     6  C    0.022965
     7  C    0.188058
     8  O    0.025695
     9  C    0.043294
    11  C   -0.022107
    13  C   -0.070125
 Electronic spatial extent (au):  <R**2>=           1501.9053
 Charge=              0.0000 electrons
 Dipole moment (field-independent basis, Debye):
    X=             -1.3416    Y=             -0.5284    Z=              0.7043  Tot=              1.6047
 Quadrupole moment (field-independent basis, Debye-Ang):
   XX=            -57.5065   YY=            -56.6408   ZZ=            -67.3730
   XY=             -4.2330   XZ=              0.7259   YZ=              2.1838
 Traceless Quadrupole moment (field-independent basis, Debye-Ang):
   XX=              3.0002   YY=              3.8660   ZZ=             -6.8662
   XY=             -4.2330   XZ=              0.7259   YZ=              2.1838
 Octapole moment (field-independent basis, Debye-Ang**2):
  XXX=             -5.1446  YYY=              5.4990  ZZZ=              0.4584  XYY=             -8.7827
  XXY=             -9.7505  XXZ=              0.2414  XZZ=              3.5883  YZZ=              5.6918
  YYZ=              6.3828  XYZ=              2.2890
 Hexadecapole moment (field-independent basis, Debye-Ang**3):
 XXXX=          -1099.5012 YYYY=           -645.3027 ZZZZ=            -77.1710 XXXY=            -22.1432
 XXXZ=             -0.2656 YYYX=            -13.9425 YYYZ=             17.6925 ZZZX=              0.5971
 ZZZY=              1.8779 XXYY=           -319.1241 XXZZ=           -236.1422 YYZZ=           -139.4236
 XXYZ=              1.4909 YYXZ=              6.7987 ZZXY=              7.8026
 N-N= 5.633093582032D+02 E-N=-2.201010059873D+03  KE= 4.616741577024D+02
 No NMR shielding tensors so no spin-rotation constants.
 Leave Link  601 at Mon Nov 21 14:56:04 2022, MaxMem= 16106127360 cpu:               4.0 elap:               0.1
 (Enter /opt/ap/G16/B01/g16/l9999.exe)
 1\1\GINC-N12\SP\RwB97XD\6-311++G(d,p)\C10H8O1\ROOT\21-Nov-2022\0\\#P w
 B97XD/6-311++G(d,p) scf=maxcycle=512\\_conf043.gjf nmol_natom 1_19\\0,
 1\C\C,1,1.40879539\C,1,1.42289824,2,117.24956717\C,2,1.41887971,1,119.
 07594714,3,0.16510261,0\C,2,1.42227783,1,117.46262303,3,-179.44443577,
 0\C,1,1.42440336,2,119.00293897,4,179.73740031,0\C,3,1.35510367,1,122.
 33979448,2,-0.36120568,0\O,3,1.37615658,1,115.04370777,2,-179.5931286,
 0\C,4,1.34577659,2,121.30210156,1,0.17277764,0\H,4,0.93023405,2,119.33
 469462,1,-179.75965297,0\C,5,1.34486794,2,122.06073707,1,-0.32265162,0
 \H,5,0.92957893,2,118.96449269,1,179.64671542,0\C,6,1.35980576,1,121.1
 112438,2,0.11625163,0\H,6,0.92999796,1,119.43671105,2,-179.87270235,0\
 H,7,0.93052813,3,120.28038366,1,-179.76477098,0\H,8,0.81991994,3,109.4
 8785721,1,35.,0\H,9,0.93027331,4,119.71917791,2,179.60144151,0\H,11,0.
 92987565,5,119.70372857,2,-179.69197286,0\H,13,0.93032717,6,120.145246
 92,1,179.85241379,0\\Version=ES64L-G16RevB.01\State=1-A\HF=-460.888454
 3\RMSD=8.687e-09\Dipole=-0.4719748,0.2715848,0.3194683\Quadrupole=3.58
 59905,-5.071442,1.4854515,0.196935,3.0004764,-1.7452588\PG=C01 [X(C10H
 8O1)]\\@


 TO SEE A WORLD IN A GRAIN OF SAND
 AND A HEAVEN IN A WILD FLOWER
 HOLD INFINITY IN THE PALM OF YOUR HAND
 AND ETERNITY IN AN HOUR

                       -- WILLIAM BLAKE
 Job cpu time:       0 days  0 hours 12 minutes 35.6 seconds.
 Elapsed time:       0 days  0 hours  0 minutes 23.7 seconds.
 File lengths (MBytes):  RWF=     51 Int=      0 D2E=      0 Chk=      6 Scr=      1
 Normal termination of Gaussian 16 at Mon Nov 21 14:56:04 2022.
