 Entering Gaussian System, Link 0=g16
 Input=_conf024.gjf
 Output=_conf024.log
 Initial command:
 /opt/ap/G16/B01/g16/l1.exe "/tmp2/scr/Gau-5217.inp" -scrdir="/tmp2/scr/"
 Entering Link 1 = /opt/ap/G16/B01/g16/l1.exe PID=      5218.
  
 Copyright (c) 1988-2017, Gaussian, Inc.  All Rights Reserved.
  
 This is part of the Gaussian(R) 16 program.  It is based on
 the Gaussian(R) 09 system (copyright 2009, Gaussian, Inc.),
 the Gaussian(R) 03 system (copyright 2003, Gaussian, Inc.),
 the Gaussian(R) 98 system (copyright 1998, Gaussian, Inc.),
 the Gaussian(R) 94 system (copyright 1995, Gaussian, Inc.),
 the Gaussian 92(TM) system (copyright 1992, Gaussian, Inc.),
 the Gaussian 90(TM) system (copyright 1990, Gaussian, Inc.),
 the Gaussian 88(TM) system (copyright 1988, Gaussian, Inc.),
 the Gaussian 86(TM) system (copyright 1986, Carnegie Mellon
 University), and the Gaussian 82(TM) system (copyright 1983,
 Carnegie Mellon University). Gaussian is a federally registered
 trademark of Gaussian, Inc.
  
 This software contains proprietary and confidential information,
 including trade secrets, belonging to Gaussian, Inc.
  
 This software is provided under written license and may be
 used, copied, transmitted, or stored only in accord with that
 written license.
  
 The following legend is applicable only to US Government
 contracts under FAR:
  
                    RESTRICTED RIGHTS LEGEND
  
 Use, reproduction and disclosure by the US Government is
 subject to restrictions as set forth in subparagraphs (a)
 and (c) of the Commercial Computer Software - Restricted
 Rights clause in FAR 52.227-19.
  
 Gaussian, Inc.
 340 Quinnipiac St., Bldg. 40, Wallingford CT 06492
  
  
 ---------------------------------------------------------------
 Warning -- This program may not be used in any manner that
 competes with the business of Gaussian, Inc. or will provide
 assistance to any competitor of Gaussian, Inc.  The licensee
 of this program is prohibited from giving any competitor of
 Gaussian, Inc. access to this program.  By using this program,
 the user acknowledges that Gaussian, Inc. is engaged in the
 business of creating and licensing software in the field of
 computational chemistry and represents and warrants to the
 licensee that it is not a competitor of Gaussian, Inc. and that
 it will not use this program in any manner prohibited above.
 ---------------------------------------------------------------
  

 Cite this work as:
 Gaussian 16, Revision B.01,
 M. J. Frisch, G. W. Trucks, H. B. Schlegel, G. E. Scuseria, 
 M. A. Robb, J. R. Cheeseman, G. Scalmani, V. Barone, 
 G. A. Petersson, H. Nakatsuji, X. Li, M. Caricato, A. V. Marenich, 
 J. Bloino, B. G. Janesko, R. Gomperts, B. Mennucci, H. P. Hratchian, 
 J. V. Ortiz, A. F. Izmaylov, J. L. Sonnenberg, D. Williams-Young, 
 F. Ding, F. Lipparini, F. Egidi, J. Goings, B. Peng, A. Petrone, 
 T. Henderson, D. Ranasinghe, V. G. Zakrzewski, J. Gao, N. Rega, 
 G. Zheng, W. Liang, M. Hada, M. Ehara, K. Toyota, R. Fukuda, 
 J. Hasegawa, M. Ishida, T. Nakajima, Y. Honda, O. Kitao, H. Nakai, 
 T. Vreven, K. Throssell, J. A. Montgomery, Jr., J. E. Peralta, 
 F. Ogliaro, M. J. Bearpark, J. J. Heyd, E. N. Brothers, K. N. Kudin, 
 V. N. Staroverov, T. A. Keith, R. Kobayashi, J. Normand, 
 K. Raghavachari, A. P. Rendell, J. C. Burant, S. S. Iyengar, 
 J. Tomasi, M. Cossi, J. M. Millam, M. Klene, C. Adamo, R. Cammi, 
 J. W. Ochterski, R. L. Martin, K. Morokuma, O. Farkas, 
 J. B. Foresman, and D. J. Fox, Gaussian, Inc., Wallingford CT, 2016.
 
 ******************************************
 Gaussian 16:  ES64L-G16RevB.01 20-Dec-2017
                21-Nov-2022 
 ******************************************
 %nprocshared=32
 Will use up to   32 processors via shared memory.
 %mem=120GB
 %chk=_conf024.chk
 ----------------------------------------
 #P wB97XD/6-311++G(d,p) scf=maxcycle=512
 ----------------------------------------
 1/38=1,172=1/1;
 2/12=2,17=6,18=5,40=1/2;
 3/5=4,6=6,7=1111,11=2,25=1,30=1,74=-58/1,2,3;
 4//1;
 5/5=2,7=512,38=5/2;
 6/7=2,8=2,9=2,10=2,28=1/1;
 99/5=1,9=1/99;
 Leave Link    1 at Mon Nov 21 14:54:01 2022, MaxMem= 16106127360 cpu:               1.8 elap:               0.1
 (Enter /opt/ap/G16/B01/g16/l101.exe)
 ----------------------------
 _conf024.gjf nmol_natom 1_19
 ----------------------------
 Symbolic Z-matrix:
 Charge =  0 Multiplicity = 1
 C
 C                    1     1.4088 
 C                    1     1.4229   2     117.24957 
 C                    2     1.41888  1     119.07595  3     0.1651   0
 C                    2     1.42228  1     117.46262  3    -179.44444  0
 C                    1     1.4244   2     119.00294  4     179.7374  0
 C                    3     1.3551   1     122.33979  2    -0.36121  0
 O                    3     1.37616  1     115.04371  2    -179.59313  0
 C                    4     1.34578  2     121.3021  1     0.17278  0
 H                    4     0.93023  2     119.33469  1    -179.75965  0
 C                    5     1.34487  2     122.06074  1    -0.32265  0
 H                    5     0.92958  2     118.96449  1     179.64672  0
 C                    6     1.35981  1     121.11124  2     0.11625  0
 H                    6     0.93     1     119.43671  2    -179.8727  0
 H                    7     0.93053  3     120.28038  1    -179.76477  0
 H                    8     0.81992  3     109.48786  1    -60.      0
 H                    9     0.93027  4     119.71918  2     179.60144  0
 H                    11    0.92988  5     119.70373  2    -179.69197  0
 H                    13    0.93033  6     120.14525  1     179.85241  0
 
 ITRead=  0  0  0  0  0  0  0  0  0  0  0  0  0  0  0  0  0  0  0
 MicOpt= -1 -1 -1 -1 -1 -1 -1 -1 -1 -1 -1 -1 -1 -1 -1 -1 -1 -1 -1
 NAtoms=     19 NQM=       19 NQMF=       0 NMMI=      0 NMMIF=      0
                NMic=       0 NMicF=      0.
                    Isotopes and Nuclear Properties:
 (Nuclear quadrupole moments (NQMom) in fm**2, nuclear magnetic moments (NMagM)
  in nuclear magnetons)

  Atom         1           2           3           4           5           6           7           8           9          10
 IAtWgt=          12          12          12          12          12          12          12          16          12           1
 AtmWgt=  12.0000000  12.0000000  12.0000000  12.0000000  12.0000000  12.0000000  12.0000000  15.9949146  12.0000000   1.0078250
 NucSpn=           0           0           0           0           0           0           0           0           0           1
 AtZEff=  -0.0000000  -0.0000000  -0.0000000  -0.0000000  -0.0000000  -0.0000000  -0.0000000  -0.0000000  -0.0000000  -0.0000000
 NQMom=    0.0000000   0.0000000   0.0000000   0.0000000   0.0000000   0.0000000   0.0000000   0.0000000   0.0000000   0.0000000
 NMagM=    0.0000000   0.0000000   0.0000000   0.0000000   0.0000000   0.0000000   0.0000000   0.0000000   0.0000000   2.7928460
 AtZNuc=   6.0000000   6.0000000   6.0000000   6.0000000   6.0000000   6.0000000   6.0000000   8.0000000   6.0000000   1.0000000

  Atom        11          12          13          14          15          16          17          18          19
 IAtWgt=          12           1          12           1           1           1           1           1           1
 AtmWgt=  12.0000000   1.0078250  12.0000000   1.0078250   1.0078250   1.0078250   1.0078250   1.0078250   1.0078250
 NucSpn=           0           1           0           1           1           1           1           1           1
 AtZEff=  -0.0000000  -0.0000000  -0.0000000  -0.0000000  -0.0000000  -0.0000000  -0.0000000  -0.0000000  -0.0000000
 NQMom=    0.0000000   0.0000000   0.0000000   0.0000000   0.0000000   0.0000000   0.0000000   0.0000000   0.0000000
 NMagM=    0.0000000   2.7928460   0.0000000   2.7928460   2.7928460   2.7928460   2.7928460   2.7928460   2.7928460
 AtZNuc=   6.0000000   1.0000000   6.0000000   1.0000000   1.0000000   1.0000000   1.0000000   1.0000000   1.0000000
 Leave Link  101 at Mon Nov 21 14:54:01 2022, MaxMem= 16106127360 cpu:               5.2 elap:               0.2
 (Enter /opt/ap/G16/B01/g16/l202.exe)
                          Input orientation:                          
 ---------------------------------------------------------------------
 Center     Atomic      Atomic             Coordinates (Angstroms)
 Number     Number       Type             X           Y           Z
 ---------------------------------------------------------------------
      1          6           0        0.000000    0.000000    0.000000
      2          6           0        0.000000    0.000000    1.408795
      3          6           0        1.264986    0.000000   -0.651498
      4          6           0        1.240062    0.003573    2.098326
      5          6           0       -1.261945   -0.012237    2.064707
      6          6           0       -1.245741   -0.009299   -0.690628
      7          6           0        2.433644    0.007218    0.034427
      8          8           0        1.212032    0.008854   -2.026607
      9          6           0        2.409936    0.010412    1.433147
     10          1           0        1.244276    0.000184    3.028545
     11          6           0       -2.421000   -0.017057    1.382624
     12          1           0       -1.286266   -0.017488    2.993953
     13          6           0       -2.424704   -0.015738   -0.013076
     14          1           0       -1.252769   -0.011151   -1.620598
     15          1           0        3.245045    0.010306   -0.421097
     16          1           0        0.813144   -0.657601   -2.289277
     17          1           0        3.210137    0.018260    1.907515
     18          1           0       -3.227740   -0.020753    1.845035
     19          1           0       -3.230632   -0.019714   -0.477804
 ---------------------------------------------------------------------
                    Distance matrix (angstroms):
                    1          2          3          4          5
     1  C    0.000000
     2  C    1.408795   0.000000
     3  C    1.422898   2.417643   0.000000
     4  C    2.437363   1.418880   2.749940   0.000000
     5  C    2.419849   1.422278   3.709892   2.502283   0.000000
     6  C    1.424403   2.441216   2.511049   3.735994   2.755385
     7  C    2.433898   2.794917   1.355104   2.384184   4.216609
     8  O    2.361406   3.642951   1.376157   4.125032   4.781198
     9  C    2.803892   2.410081   2.378396   1.345777   3.725867
    10  H    3.274188   2.042501   3.680101   0.930234   2.685197
    11  C    2.788042   2.421201   4.210040   3.730420   1.344868
    12  H    3.258610   2.041448   4.449551   2.680471   0.929579
    13  C    2.424790   2.810899   3.744548   4.229527   2.381009
    14  H    2.048388   3.278228   2.697845   4.477144   3.685317
    15  H    3.272269   3.725443   1.993445   3.219859   5.147104
    16  H    2.516830   3.843095   1.821790   4.457631   4.866176
    17  H    3.734157   3.248697   3.214420   1.979348   4.474947
    18  H    3.717915   3.257153   5.139815   4.475043   1.978050
    19  H    3.265834   3.741207   4.499015   5.159854   3.215610
                    6          7          8          9         10
     6  C    0.000000
     7  C    3.750180   0.000000
     8  O    2.797466   2.395871   0.000000
     9  C    4.227858   1.398925   3.661267   0.000000
    10  H    4.475771   3.221706   5.055262   1.975895   0.000000
    11  C    2.383205   5.038431   4.982213   4.831278   4.017910
    12  H    3.684813   4.753644   5.607870   4.012331   2.530840
    13  C    1.359806   4.858634   4.157013   5.046383   4.765829
    14  H    0.929998   4.040926   2.498097   4.768777   5.277300
    15  H    4.498910   0.930528   2.590522   2.033624   3.987882
    16  H    2.686072   2.909914   0.819920   4.105171   5.375666
    17  H    5.158096   2.027689   4.412463   0.930273   2.263105
    18  H    3.218391   5.943934   5.890846   5.652788   4.626021
    19  H    1.996295   5.687453   4.704984   5.955556   5.685040
                   11         12         13         14         15
    11  C    0.000000
    12  H    1.970788   0.000000
    13  C    1.395705   3.215317   0.000000
    14  H    3.222443   4.614677   1.989366   0.000000
    15  H    5.946277   5.674162   5.684470   4.655061   0.000000
    16  H    4.934859   5.720995   4.009581   2.265618   3.138525
    17  H    5.655657   4.625934   5.953256   5.689110   2.328887
    18  H    0.929876   2.255958   2.024221   3.988887   6.858080
    19  H    2.028966   3.979153   0.930327   2.284293   6.475995
                   16         17         18         19
    16  H    0.000000
    17  H    4.880105   0.000000
    18  H    5.816086   6.438299   0.000000
    19  H    4.476658   6.868384   2.322841   0.000000
 Stoichiometry    C10H8O
 Framework group  C1[X(C10H8O)]
 Deg. of freedom    51
 Full point group                 C1      NOp   1
 Largest Abelian subgroup         C1      NOp   1
 Largest concise Abelian subgroup C1      NOp   1
                         Standard orientation:                         
 ---------------------------------------------------------------------
 Center     Atomic      Atomic             Coordinates (Angstroms)
 Number     Number       Type             X           Y           Z
 ---------------------------------------------------------------------
      1          6           0        0.027066    0.426341   -0.016037
      2          6           0        0.338922   -0.947412   -0.000156
      3          6           0       -1.350753    0.781660   -0.017624
      4          6           0       -0.717743   -1.894292    0.009688
      5          6           0        1.714776   -1.307561    0.013730
      6          6           0        1.089037    1.375617   -0.020194
      7          6           0       -2.338591   -0.145944   -0.011790
      8          8           0       -1.603530    2.134178   -0.042219
      9          6           0       -2.005851   -1.504664    0.000676
     10          1           0       -0.515929   -2.802264    0.023583
     11          6           0        2.694095   -0.385857    0.005586
     12          1           0        1.944206   -2.208247    0.029345
     13          6           0        2.388747    0.975930   -0.011484
     14          1           0        0.890032    2.284032   -0.028857
     15          1           0       -3.230703    0.118628   -0.016320
     16          1           0       -1.271390    2.486597    0.619409
     17          1           0       -2.681206   -2.144432    0.001818
     18          1           0        3.583188   -0.658169    0.010822
     19          1           0        3.071813    1.607519   -0.016415
 ---------------------------------------------------------------------
 Rotational constants (GHZ):           2.0022406           1.1570108           0.7341880
 Leave Link  202 at Mon Nov 21 14:54:01 2022, MaxMem= 16106127360 cpu:               0.3 elap:               0.0
 (Enter /opt/ap/G16/B01/g16/l301.exe)
 Standard basis: 6-311++G(d,p) (5D, 7F)
 Ernie: Thresh=  0.10000D-02 Tol=  0.10000D-05 Strict=F.
 There are   309 symmetry adapted cartesian basis functions of A   symmetry.
 There are   298 symmetry adapted basis functions of A   symmetry.
   298 basis functions,   468 primitive gaussians,   309 cartesian basis functions
    38 alpha electrons       38 beta electrons
       nuclear repulsion energy       563.0331654112 Hartrees.
 IExCor= 4639 DFT=T Ex+Corr=wB97XD ExCW=0 ScaHFX=  1.000000
 ScaDFX=  1.000000  1.000000  1.000000  1.000000 ScalE2=  1.000000  1.000000
 IRadAn=      5 IRanWt=     -1 IRanGd=            0 ICorTp=0 IEmpDi=121
 HFx  wShort=  0.000000 wLong=  0.200000 cFull=  0.222036 cShort=  0.000000 cLong=  0.777964
 DFx  wShort=  0.000000 wLong=  0.200000 cFull=  0.000000 cShort=  0.000000 cLong=  1.000000
 NAtoms=   19 NActive=   19 NUniq=   19 SFac= 1.00D+00 NAtFMM=   60 NAOKFM=F Big=F
 Integral buffers will be    131072 words long.
 Raffenetti 2 integral format.
 Two-electron integral symmetry is turned on.
 R6Disp:  Grimme-D2 Dispersion energy=       -0.0103796453 Hartrees.
 Nuclear repulsion after empirical dispersion term =      563.0227857659 Hartrees.
 Leave Link  301 at Mon Nov 21 14:54:01 2022, MaxMem= 16106127360 cpu:               1.2 elap:               0.0
 (Enter /opt/ap/G16/B01/g16/l302.exe)
 NPDir=0 NMtPBC=     1 NCelOv=     1 NCel=       1 NClECP=     1 NCelD=      1
         NCelK=      1 NCelE2=     1 NClLst=     1 CellRange=     0.0.
 One-electron integrals computed using PRISM.
 One-electron integral symmetry used in STVInt
 NBasis=   298 RedAO= T EigKep=  1.30D-06  NBF=   298
 NBsUse=   296 1.00D-06 EigRej=  6.40D-07 NBFU=   296
 Precomputing XC quadrature grid using
 IXCGrd= 4 IRadAn=           5 IRanWt=          -1 IRanGd=           0 AccXCQ= 0.00D+00.
 Generated NRdTot=       0 NPtTot=           0 NUsed=           0 NTot=          32
 NSgBfM=   309   309   309   309   309 MxSgAt=    19 MxSgA2=    19.
 Leave Link  302 at Mon Nov 21 14:54:01 2022, MaxMem= 16106127360 cpu:               6.4 elap:               0.2
 (Enter /opt/ap/G16/B01/g16/l303.exe)
 DipDrv:  MaxL=1.
 Leave Link  303 at Mon Nov 21 14:54:01 2022, MaxMem= 16106127360 cpu:               1.3 elap:               0.0
 (Enter /opt/ap/G16/B01/g16/l401.exe)
 ExpMin= 3.60D-02 ExpMax= 8.59D+03 ExpMxC= 1.30D+03 IAcc=3 IRadAn=         5 AccDes= 0.00D+00
 Harris functional with IExCor= 4639 and IRadAn=       5 diagonalized for initial guess.
 HarFok:  IExCor= 4639 AccDes= 0.00D+00 IRadAn=         5 IDoV= 1 UseB2=F ITyADJ=14
 ICtDFT=  3500011 ScaDFX=  1.000000  1.000000  1.000000  1.000000
 FoFCou: FMM=F IPFlag=           0 FMFlag=      100000 FMFlg1=           0
         NFxFlg=           0 DoJE=T BraDBF=F KetDBF=T FulRan=T
         wScrn=  0.000000 ICntrl=       500 IOpCl=  0 I1Cent=   200000004 NGrid=           0
         NMat0=    1 NMatS0=      1 NMatT0=    0 NMatD0=    1 NMtDS0=    0 NMtDT0=    0
 Petite list used in FoFCou.
 Harris En= -440.611517510126    
 JPrj=0 DoOrth=F DoCkMO=F.
 Leave Link  401 at Mon Nov 21 14:54:02 2022, MaxMem= 16106127360 cpu:              16.7 elap:               0.5
 (Enter /opt/ap/G16/B01/g16/l502.exe)
 Integral symmetry usage will be decided dynamically.
 Closed shell SCF:
 Using DIIS extrapolation, IDIIS=  1040.
 NGot= 16106127360 LenX= 16105923535 LenY= 16105827613
 Requested convergence on RMS density matrix=1.00D-08 within 512 cycles.
 Requested convergence on MAX density matrix=1.00D-06.
 Requested convergence on             energy=1.00D-06.
 No special actions if energy rises.
 Fock matrices will be formed incrementally for  20 cycles.

 Cycle   1  Pass 1  IDiag  1:
 FoFJK:  IHMeth= 1 ICntrl=       0 DoSepK=T KAlg= 0 I1Cent=           0 FoldK=F
 IRaf=         1 NMat=       1 IRICut=       1 DoRegI=T DoRafI=F ISym2E= 0 IDoP0=0 IntGTp=1.
 FoFCou: FMM=F IPFlag=           0 FMFlag=      100000 FMFlg1=           0
         NFxFlg=           0 DoJE=T BraDBF=F KetDBF=F FulRan=T
         wScrn=  0.000000 ICntrl=       500 IOpCl=  0 I1Cent=           0 NGrid=           0
         NMat0=    1 NMatS0=      1 NMatT0=    0 NMatD0=    1 NMtDS0=    0 NMtDT0=    0
 Symmetry not used in FoFCou.
 E= -460.752876175678    
 DIIS: error= 6.17D-02 at cycle   1 NSaved=   1.
 NSaved= 1 IEnMin= 1 EnMin= -460.752876175678     IErMin= 1 ErrMin= 6.17D-02
 ErrMax= 6.17D-02  0.00D+00 EMaxC= 1.00D-01 BMatC= 9.53D-01 BMatP= 9.53D-01
 IDIUse=3 WtCom= 3.83D-01 WtEn= 6.17D-01
 Coeff-Com:  0.100D+01
 Coeff-En:   0.100D+01
 Coeff:      0.100D+01
 Gap=     0.333 Goal=   None    Shift=    0.000
 GapD=    0.333 DampG=1.000 DampE=0.500 DampFc=0.5000 IDamp=-1.
 Damping current iteration by 5.00D-01
 RMSDP=4.35D-02 MaxDP=4.76D+00              OVMax= 1.33D-01

 Cycle   2  Pass 1  IDiag  1:
 RMSU=  8.28D-03    CP:  8.13D-01
 E= -460.818851641704     Delta-E=       -0.065975466027 Rises=F Damp=T
 DIIS: error= 3.06D-02 at cycle   2 NSaved=   2.
 NSaved= 2 IEnMin= 2 EnMin= -460.818851641704     IErMin= 2 ErrMin= 3.06D-02
 ErrMax= 3.06D-02  0.00D+00 EMaxC= 1.00D-01 BMatC= 2.08D-01 BMatP= 9.53D-01
 IDIUse=3 WtCom= 6.94D-01 WtEn= 3.06D-01
 Coeff-Com: -0.725D+00 0.173D+01
 Coeff-En:   0.000D+00 0.100D+01
 Coeff:     -0.504D+00 0.150D+01
 Gap=     0.332 Goal=   None    Shift=    0.000
 RMSDP=2.54D-02 MaxDP=2.78D+00 DE=-6.60D-02 OVMax= 1.31D-01

 Cycle   3  Pass 1  IDiag  1:
 RMSU=  7.41D-03    CP:  5.91D-01  1.52D+00
 E= -460.863499175031     Delta-E=       -0.044647533326 Rises=F Damp=F
 DIIS: error= 7.87D-03 at cycle   3 NSaved=   3.
 NSaved= 3 IEnMin= 3 EnMin= -460.863499175031     IErMin= 3 ErrMin= 7.87D-03
 ErrMax= 7.87D-03  0.00D+00 EMaxC= 1.00D-01 BMatC= 2.58D-02 BMatP= 2.08D-01
 IDIUse=3 WtCom= 9.21D-01 WtEn= 7.87D-02
 Coeff-Com: -0.359D+00 0.763D+00 0.596D+00
 Coeff-En:   0.000D+00 0.000D+00 0.100D+01
 Coeff:     -0.331D+00 0.703D+00 0.627D+00
 Gap=     0.314 Goal=   None    Shift=    0.000
 RMSDP=4.36D-03 MaxDP=3.83D-01 DE=-4.46D-02 OVMax= 5.77D-02

 Cycle   4  Pass 1  IDiag  1:
 RMSU=  1.43D-03    CP:  5.67D-01  1.66D+00  5.91D-01
 E= -460.886908191900     Delta-E=       -0.023409016869 Rises=F Damp=F
 DIIS: error= 1.49D-03 at cycle   4 NSaved=   4.
 NSaved= 4 IEnMin= 4 EnMin= -460.886908191900     IErMin= 4 ErrMin= 1.49D-03
 ErrMax= 1.49D-03  0.00D+00 EMaxC= 1.00D-01 BMatC= 6.87D-04 BMatP= 2.58D-02
 IDIUse=3 WtCom= 9.85D-01 WtEn= 1.49D-02
 Coeff-Com: -0.126D+00 0.270D+00 0.280D+00 0.577D+00
 Coeff-En:   0.000D+00 0.000D+00 0.000D+00 0.100D+01
 Coeff:     -0.125D+00 0.266D+00 0.275D+00 0.583D+00
 Gap=     0.309 Goal=   None    Shift=    0.000
 RMSDP=5.67D-04 MaxDP=2.63D-02 DE=-2.34D-02 OVMax= 7.43D-03

 Cycle   5  Pass 1  IDiag  1:
 RMSU=  3.75D-04    CP:  5.68D-01  1.67D+00  6.36D-01  8.46D-01
 E= -460.887563728208     Delta-E=       -0.000655536308 Rises=F Damp=F
 DIIS: error= 1.89D-04 at cycle   5 NSaved=   5.
 NSaved= 5 IEnMin= 5 EnMin= -460.887563728208     IErMin= 5 ErrMin= 1.89D-04
 ErrMax= 1.89D-04  0.00D+00 EMaxC= 1.00D-01 BMatC= 1.65D-05 BMatP= 6.87D-04
 IDIUse=3 WtCom= 9.98D-01 WtEn= 1.89D-03
 Coeff-Com:  0.568D-02-0.118D-01 0.111D-01 0.144D+00 0.851D+00
 Coeff-En:   0.000D+00 0.000D+00 0.000D+00 0.000D+00 0.100D+01
 Coeff:      0.567D-02-0.118D-01 0.110D-01 0.144D+00 0.851D+00
 Gap=     0.309 Goal=   None    Shift=    0.000
 RMSDP=2.12D-04 MaxDP=8.93D-03 DE=-6.56D-04 OVMax= 2.61D-03

 Cycle   6  Pass 1  IDiag  1:
 RMSU=  1.68D-04    CP:  5.67D-01  1.67D+00  6.43D-01  8.95D-01  1.10D+00
 E= -460.887585689362     Delta-E=       -0.000021961154 Rises=F Damp=F
 DIIS: error= 1.30D-04 at cycle   6 NSaved=   6.
 NSaved= 6 IEnMin= 6 EnMin= -460.887585689362     IErMin= 6 ErrMin= 1.30D-04
 ErrMax= 1.30D-04  0.00D+00 EMaxC= 1.00D-01 BMatC= 3.54D-06 BMatP= 1.65D-05
 IDIUse=3 WtCom= 9.99D-01 WtEn= 1.30D-03
 Coeff-Com:  0.161D-01-0.344D-01-0.240D-01-0.528D-02 0.340D+00 0.708D+00
 Coeff-En:   0.000D+00 0.000D+00 0.000D+00 0.000D+00 0.000D+00 0.100D+01
 Coeff:      0.161D-01-0.344D-01-0.240D-01-0.527D-02 0.339D+00 0.708D+00
 Gap=     0.309 Goal=   None    Shift=    0.000
 RMSDP=1.15D-04 MaxDP=8.63D-03 DE=-2.20D-05 OVMax= 9.60D-04

 Cycle   7  Pass 1  IDiag  1:
 RMSU=  4.87D-05    CP:  5.66D-01  1.68D+00  6.42D-01  9.17D-01  1.19D+00
                    CP:  1.02D+00
 E= -460.887590716951     Delta-E=       -0.000005027589 Rises=F Damp=F
 DIIS: error= 4.09D-05 at cycle   7 NSaved=   7.
 NSaved= 7 IEnMin= 7 EnMin= -460.887590716951     IErMin= 7 ErrMin= 4.09D-05
 ErrMax= 4.09D-05  0.00D+00 EMaxC= 1.00D-01 BMatC= 2.49D-07 BMatP= 3.54D-06
 IDIUse=1 WtCom= 1.00D+00 WtEn= 0.00D+00
 Coeff-Com:  0.138D-02-0.292D-02-0.260D-02-0.141D-01-0.546D-01 0.839D-01
 Coeff-Com:  0.989D+00
 Coeff:      0.138D-02-0.292D-02-0.260D-02-0.141D-01-0.546D-01 0.839D-01
 Coeff:      0.989D+00
 Gap=     0.309 Goal=   None    Shift=    0.000
 RMSDP=2.56D-05 MaxDP=1.55D-03 DE=-5.03D-06 OVMax= 6.28D-04

 Cycle   8  Pass 1  IDiag  1:
 RMSU=  1.48D-05    CP:  5.66D-01  1.68D+00  6.42D-01  9.19D-01  1.20D+00
                    CP:  1.09D+00  1.09D+00
 E= -460.887591522223     Delta-E=       -0.000000805272 Rises=F Damp=F
 DIIS: error= 2.99D-05 at cycle   8 NSaved=   8.
 NSaved= 8 IEnMin= 8 EnMin= -460.887591522223     IErMin= 8 ErrMin= 2.99D-05
 ErrMax= 2.99D-05  0.00D+00 EMaxC= 1.00D-01 BMatC= 8.08D-08 BMatP= 2.49D-07
 IDIUse=1 WtCom= 1.00D+00 WtEn= 0.00D+00
 Coeff-Com: -0.199D-02 0.429D-02 0.311D-02-0.447D-02-0.797D-01-0.888D-01
 Coeff-Com:  0.419D+00 0.749D+00
 Coeff:     -0.199D-02 0.429D-02 0.311D-02-0.447D-02-0.797D-01-0.888D-01
 Coeff:      0.419D+00 0.749D+00
 Gap=     0.309 Goal=   None    Shift=    0.000
 RMSDP=1.21D-05 MaxDP=1.22D-03 DE=-8.05D-07 OVMax= 2.25D-04

 Cycle   9  Pass 1  IDiag  1:
 RMSU=  7.19D-06    CP:  5.66D-01  1.68D+00  6.42D-01  9.19D-01  1.21D+00
                    CP:  1.12D+00  1.17D+00  9.50D-01
 E= -460.887591690812     Delta-E=       -0.000000168589 Rises=F Damp=F
 DIIS: error= 8.67D-06 at cycle   9 NSaved=   9.
 NSaved= 9 IEnMin= 9 EnMin= -460.887591690812     IErMin= 9 ErrMin= 8.67D-06
 ErrMax= 8.67D-06  0.00D+00 EMaxC= 1.00D-01 BMatC= 5.50D-09 BMatP= 8.08D-08
 IDIUse=1 WtCom= 1.00D+00 WtEn= 0.00D+00
 Coeff-Com: -0.713D-03 0.153D-02 0.128D-02 0.133D-02-0.112D-01-0.375D-01
 Coeff-Com: -0.503D-01 0.128D+00 0.968D+00
 Coeff:     -0.713D-03 0.153D-02 0.128D-02 0.133D-02-0.112D-01-0.375D-01
 Coeff:     -0.503D-01 0.128D+00 0.968D+00
 Gap=     0.309 Goal=   None    Shift=    0.000
 RMSDP=4.20D-06 MaxDP=3.44D-04 DE=-1.69D-07 OVMax= 1.21D-04

 Cycle  10  Pass 1  IDiag  1:
 RMSU=  2.96D-06    CP:  5.66D-01  1.68D+00  6.42D-01  9.19D-01  1.21D+00
                    CP:  1.13D+00  1.18D+00  1.07D+00  1.11D+00
 E= -460.887591715090     Delta-E=       -0.000000024278 Rises=F Damp=F
 DIIS: error= 4.84D-06 at cycle  10 NSaved=  10.
 NSaved=10 IEnMin=10 EnMin= -460.887591715090     IErMin=10 ErrMin= 4.84D-06
 ErrMax= 4.84D-06  0.00D+00 EMaxC= 1.00D-01 BMatC= 8.13D-10 BMatP= 5.50D-09
 IDIUse=1 WtCom= 1.00D+00 WtEn= 0.00D+00
 Coeff-Com:  0.484D-04-0.108D-03-0.228D-04 0.896D-03 0.628D-02 0.108D-02
 Coeff-Com: -0.513D-01-0.689D-01 0.217D+00 0.895D+00
 Coeff:      0.484D-04-0.108D-03-0.228D-04 0.896D-03 0.628D-02 0.108D-02
 Coeff:     -0.513D-01-0.689D-01 0.217D+00 0.895D+00
 Gap=     0.309 Goal=   None    Shift=    0.000
 RMSDP=1.63D-06 MaxDP=1.12D-04 DE=-2.43D-08 OVMax= 3.80D-05

 Cycle  11  Pass 1  IDiag  1:
 RMSU=  6.91D-07    CP:  5.66D-01  1.68D+00  6.42D-01  9.18D-01  1.21D+00
                    CP:  1.13D+00  1.17D+00  1.08D+00  1.21D+00  1.16D+00
 E= -460.887591717896     Delta-E=       -0.000000002806 Rises=F Damp=F
 DIIS: error= 1.13D-06 at cycle  11 NSaved=  11.
 NSaved=11 IEnMin=11 EnMin= -460.887591717896     IErMin=11 ErrMin= 1.13D-06
 ErrMax= 1.13D-06  0.00D+00 EMaxC= 1.00D-01 BMatC= 1.97D-10 BMatP= 8.13D-10
 IDIUse=1 WtCom= 1.00D+00 WtEn= 0.00D+00
 Coeff-Com:  0.128D-03-0.275D-03-0.211D-03 0.135D-03 0.397D-02 0.566D-02
 Coeff-Com: -0.101D-01-0.464D-01-0.732D-01 0.339D+00 0.781D+00
 Coeff:      0.128D-03-0.275D-03-0.211D-03 0.135D-03 0.397D-02 0.566D-02
 Coeff:     -0.101D-01-0.464D-01-0.732D-01 0.339D+00 0.781D+00
 Gap=     0.309 Goal=   None    Shift=    0.000
 RMSDP=5.86D-07 MaxDP=3.53D-05 DE=-2.81D-09 OVMax= 1.44D-05

 Cycle  12  Pass 1  IDiag  1:
 RMSU=  3.18D-07    CP:  5.66D-01  1.68D+00  6.42D-01  9.18D-01  1.21D+00
                    CP:  1.13D+00  1.17D+00  1.08D+00  1.23D+00  1.23D+00
                    CP:  1.16D+00
 E= -460.887591718401     Delta-E=       -0.000000000505 Rises=F Damp=F
 DIIS: error= 4.54D-07 at cycle  12 NSaved=  12.
 NSaved=12 IEnMin=12 EnMin= -460.887591718401     IErMin=12 ErrMin= 4.54D-07
 ErrMax= 4.54D-07  0.00D+00 EMaxC= 1.00D-01 BMatC= 1.46D-11 BMatP= 1.97D-10
 IDIUse=1 WtCom= 1.00D+00 WtEn= 0.00D+00
 Coeff-Com:  0.195D-05-0.347D-05-0.143D-04-0.122D-03-0.626D-03 0.810D-05
 Coeff-Com:  0.706D-02 0.801D-02-0.414D-01-0.108D+00 0.105D-02 0.113D+01
 Coeff:      0.195D-05-0.347D-05-0.143D-04-0.122D-03-0.626D-03 0.810D-05
 Coeff:      0.706D-02 0.801D-02-0.414D-01-0.108D+00 0.105D-02 0.113D+01
 Gap=     0.309 Goal=   None    Shift=    0.000
 RMSDP=2.28D-07 MaxDP=1.47D-05 DE=-5.05D-10 OVMax= 8.19D-06

 Cycle  13  Pass 1  IDiag  1:
 RMSU=  9.61D-08    CP:  5.66D-01  1.68D+00  6.42D-01  9.18D-01  1.21D+00
                    CP:  1.13D+00  1.17D+00  1.08D+00  1.22D+00  1.26D+00
                    CP:  1.35D+00  1.36D+00
 E= -460.887591718492     Delta-E=       -0.000000000091 Rises=F Damp=F
 DIIS: error= 1.52D-07 at cycle  13 NSaved=  13.
 NSaved=13 IEnMin=13 EnMin= -460.887591718492     IErMin=13 ErrMin= 1.52D-07
 ErrMax= 1.52D-07  0.00D+00 EMaxC= 1.00D-01 BMatC= 4.91D-12 BMatP= 1.46D-11
 IDIUse=1 WtCom= 1.00D+00 WtEn= 0.00D+00
 Coeff-Com: -0.123D-04 0.269D-04 0.162D-04-0.660D-04-0.664D-03-0.616D-03
 Coeff-Com:  0.422D-02 0.910D-02-0.757D-02-0.804D-01-0.917D-01 0.489D+00
 Coeff-Com:  0.679D+00
 Coeff:     -0.123D-04 0.269D-04 0.162D-04-0.660D-04-0.664D-03-0.616D-03
 Coeff:      0.422D-02 0.910D-02-0.757D-02-0.804D-01-0.917D-01 0.489D+00
 Coeff:      0.679D+00
 Gap=     0.309 Goal=   None    Shift=    0.000
 RMSDP=6.58D-08 MaxDP=3.24D-06 DE=-9.12D-11 OVMax= 1.83D-06

 Cycle  14  Pass 1  IDiag  1:
 RMSU=  3.75D-08    CP:  5.66D-01  1.68D+00  6.42D-01  9.18D-01  1.21D+00
                    CP:  1.13D+00  1.17D+00  1.08D+00  1.22D+00  1.26D+00
                    CP:  1.38D+00  1.46D+00  1.12D+00
 E= -460.887591718511     Delta-E=       -0.000000000019 Rises=F Damp=F
 DIIS: error= 9.48D-08 at cycle  14 NSaved=  14.
 NSaved=14 IEnMin=14 EnMin= -460.887591718511     IErMin=14 ErrMin= 9.48D-08
 ErrMax= 9.48D-08  0.00D+00 EMaxC= 1.00D-01 BMatC= 5.26D-13 BMatP= 4.91D-12
 IDIUse=1 WtCom= 1.00D+00 WtEn= 0.00D+00
 Coeff-Com: -0.349D-05 0.744D-05 0.642D-05 0.304D-05-0.395D-04-0.162D-03
 Coeff-Com: -0.528D-03 0.695D-03 0.630D-02 0.168D-02-0.237D-01-0.120D+00
 Coeff-Com:  0.141D+00 0.995D+00
 Coeff:     -0.349D-05 0.744D-05 0.642D-05 0.304D-05-0.395D-04-0.162D-03
 Coeff:     -0.528D-03 0.695D-03 0.630D-02 0.168D-02-0.237D-01-0.120D+00
 Coeff:      0.141D+00 0.995D+00
 Gap=     0.309 Goal=   None    Shift=    0.000
 RMSDP=4.74D-08 MaxDP=2.87D-06 DE=-1.89D-11 OVMax= 1.37D-06

 Cycle  15  Pass 1  IDiag  1:
 RMSU=  2.13D-08    CP:  5.66D-01  1.68D+00  6.42D-01  9.18D-01  1.21D+00
                    CP:  1.13D+00  1.17D+00  1.08D+00  1.22D+00  1.26D+00
                    CP:  1.38D+00  1.48D+00  1.31D+00  1.17D+00
 E= -460.887591718511     Delta-E=       -0.000000000000 Rises=F Damp=F
 DIIS: error= 3.48D-08 at cycle  15 NSaved=  15.
 NSaved=15 IEnMin=15 EnMin= -460.887591718511     IErMin=15 ErrMin= 3.48D-08
 ErrMax= 3.48D-08  0.00D+00 EMaxC= 1.00D-01 BMatC= 9.91D-14 BMatP= 5.26D-13
 IDIUse=1 WtCom= 1.00D+00 WtEn= 0.00D+00
 Coeff-Com:  0.839D-07-0.263D-06 0.457D-06 0.806D-05 0.622D-04 0.189D-04
 Coeff-Com: -0.693D-03-0.778D-03 0.250D-02 0.931D-02 0.477D-02-0.930D-01
 Coeff-Com: -0.533D-01 0.314D+00 0.818D+00
 Coeff:      0.839D-07-0.263D-06 0.457D-06 0.806D-05 0.622D-04 0.189D-04
 Coeff:     -0.693D-03-0.778D-03 0.250D-02 0.931D-02 0.477D-02-0.930D-01
 Coeff:     -0.533D-01 0.314D+00 0.818D+00
 Gap=     0.309 Goal=   None    Shift=    0.000
 RMSDP=1.61D-08 MaxDP=1.38D-06 DE=-1.14D-13 OVMax= 4.27D-07

 Cycle  16  Pass 1  IDiag  1:
 RMSU=  7.41D-09    CP:  5.66D-01  1.68D+00  6.42D-01  9.18D-01  1.21D+00
                    CP:  1.13D+00  1.17D+00  1.08D+00  1.22D+00  1.26D+00
                    CP:  1.37D+00  1.48D+00  1.37D+00  1.28D+00  1.29D+00
 E= -460.887591718513     Delta-E=       -0.000000000001 Rises=F Damp=F
 DIIS: error= 1.38D-08 at cycle  16 NSaved=  16.
 NSaved=16 IEnMin=16 EnMin= -460.887591718513     IErMin=16 ErrMin= 1.38D-08
 ErrMax= 1.38D-08  0.00D+00 EMaxC= 1.00D-01 BMatC= 1.83D-14 BMatP= 9.91D-14
 IDIUse=1 WtCom= 1.00D+00 WtEn= 0.00D+00
 Coeff-Com:  0.608D-06-0.133D-05-0.988D-06 0.170D-05 0.259D-04 0.414D-04
 Coeff-Com: -0.111D-03-0.347D-03-0.430D-03 0.260D-02 0.768D-02-0.650D-02
 Coeff-Com: -0.577D-01-0.991D-01 0.256D+00 0.898D+00
 Coeff:      0.608D-06-0.133D-05-0.988D-06 0.170D-05 0.259D-04 0.414D-04
 Coeff:     -0.111D-03-0.347D-03-0.430D-03 0.260D-02 0.768D-02-0.650D-02
 Coeff:     -0.577D-01-0.991D-01 0.256D+00 0.898D+00
 Gap=     0.309 Goal=   None    Shift=    0.000
 RMSDP=8.47D-09 MaxDP=8.03D-07 DE=-1.36D-12 OVMax= 2.04D-07

 SCF Done:  E(RwB97XD) =  -460.887591719     A.U. after   16 cycles
            NFock= 16  Conv=0.85D-08     -V/T= 1.9983
 KE= 4.616865652984D+02 PE=-2.200582358252D+03 EE= 7.149854154693D+02
 Leave Link  502 at Mon Nov 21 14:54:25 2022, MaxMem= 16106127360 cpu:             717.5 elap:              22.5
 (Enter /opt/ap/G16/B01/g16/l601.exe)
 Copying SCF densities to generalized density rwf, IOpCl= 0 IROHF=0.

 **********************************************************************

            Population analysis using the SCF Density.

 **********************************************************************

 Orbital symmetries:
       Occupied  (A) (A) (A) (A) (A) (A) (A) (A) (A) (A) (A) (A)
                 (A) (A) (A) (A) (A) (A) (A) (A) (A) (A) (A) (A)
                 (A) (A) (A) (A) (A) (A) (A) (A) (A) (A) (A) (A)
                 (A) (A)
       Virtual   (A) (A) (A) (A) (A) (A) (A) (A) (A) (A) (A) (A)
                 (A) (A) (A) (A) (A) (A) (A) (A) (A) (A) (A) (A)
                 (A) (A) (A) (A) (A) (A) (A) (A) (A) (A) (A) (A)
                 (A) (A) (A) (A) (A) (A) (A) (A) (A) (A) (A) (A)
                 (A) (A) (A) (A) (A) (A) (A) (A) (A) (A) (A) (A)
                 (A) (A) (A) (A) (A) (A) (A) (A) (A) (A) (A) (A)
                 (A) (A) (A) (A) (A) (A) (A) (A) (A) (A) (A) (A)
                 (A) (A) (A) (A) (A) (A) (A) (A) (A) (A) (A) (A)
                 (A) (A) (A) (A) (A) (A) (A) (A) (A) (A) (A) (A)
                 (A) (A) (A) (A) (A) (A) (A) (A) (A) (A) (A) (A)
                 (A) (A) (A) (A) (A) (A) (A) (A) (A) (A) (A) (A)
                 (A) (A) (A) (A) (A) (A) (A) (A) (A) (A) (A) (A)
                 (A) (A) (A) (A) (A) (A) (A) (A) (A) (A) (A) (A)
                 (A) (A) (A) (A) (A) (A) (A) (A) (A) (A) (A) (A)
                 (A) (A) (A) (A) (A) (A) (A) (A) (A) (A) (A) (A)
                 (A) (A) (A) (A) (A) (A) (A) (A) (A) (A) (A) (A)
                 (A) (A) (A) (A) (A) (A) (A) (A) (A) (A) (A) (A)
                 (A) (A) (A) (A) (A) (A) (A) (A) (A) (A) (A) (A)
                 (A) (A) (A) (A) (A) (A) (A) (A) (A) (A) (A) (A)
                 (A) (A) (A) (A) (A) (A) (A) (A) (A) (A) (A) (A)
                 (A) (A) (A) (A) (A) (A) (A) (A) (A) (A) (A) (A)
                 (A) (A) (A) (A) (A) (A)
 The electronic state is 1-A.
 Alpha  occ. eigenvalues --  -19.25716 -10.34776 -10.29862 -10.29680 -10.27635
 Alpha  occ. eigenvalues --  -10.27227 -10.27209 -10.27176 -10.26932 -10.26843
 Alpha  occ. eigenvalues --  -10.26760  -1.19371  -0.98885  -0.94350  -0.88585
 Alpha  occ. eigenvalues --   -0.86332  -0.84382  -0.75281  -0.73608  -0.72473
 Alpha  occ. eigenvalues --   -0.67108  -0.64619  -0.61575  -0.60356  -0.55621
 Alpha  occ. eigenvalues --   -0.54923  -0.52711  -0.52496  -0.51476  -0.48582
 Alpha  occ. eigenvalues --   -0.47845  -0.45035  -0.43441  -0.42366  -0.40375
 Alpha  occ. eigenvalues --   -0.36099  -0.32797  -0.29265
 Alpha virt. eigenvalues --    0.01680   0.03934   0.04391   0.04717   0.04950
 Alpha virt. eigenvalues --    0.06262   0.06486   0.08340   0.08719   0.09030
 Alpha virt. eigenvalues --    0.10282   0.11527   0.12064   0.13014   0.13862
 Alpha virt. eigenvalues --    0.14996   0.15050   0.15553   0.15994   0.16411
 Alpha virt. eigenvalues --    0.16655   0.17136   0.17508   0.17924   0.18375
 Alpha virt. eigenvalues --    0.18667   0.19035   0.19268   0.20041   0.20670
 Alpha virt. eigenvalues --    0.21737   0.21853   0.22394   0.22566   0.22925
 Alpha virt. eigenvalues --    0.24588   0.25740   0.26038   0.26192   0.27012
 Alpha virt. eigenvalues --    0.27468   0.28794   0.29163   0.29479   0.30067
 Alpha virt. eigenvalues --    0.31116   0.31716   0.31978   0.32589   0.32791
 Alpha virt. eigenvalues --    0.33940   0.34453   0.34948   0.35309   0.35962
 Alpha virt. eigenvalues --    0.36214   0.36956   0.37850   0.38759   0.39401
 Alpha virt. eigenvalues --    0.40046   0.41106   0.41727   0.42671   0.43264
 Alpha virt. eigenvalues --    0.44134   0.44645   0.47210   0.47449   0.48048
 Alpha virt. eigenvalues --    0.50684   0.57292   0.58231   0.59956   0.61169
 Alpha virt. eigenvalues --    0.61881   0.62527   0.65170   0.65801   0.66039
 Alpha virt. eigenvalues --    0.66621   0.67577   0.67992   0.68370   0.70255
 Alpha virt. eigenvalues --    0.70551   0.70825   0.71612   0.72092   0.72551
 Alpha virt. eigenvalues --    0.74383   0.75459   0.76832   0.79070   0.80865
 Alpha virt. eigenvalues --    0.82265   0.82793   0.84788   0.86539   0.87360
 Alpha virt. eigenvalues --    0.89167   0.90459   0.91359   0.92381   0.93203
 Alpha virt. eigenvalues --    0.95704   0.96224   0.97119   0.99561   1.00511
 Alpha virt. eigenvalues --    1.01698   1.02109   1.03900   1.04933   1.05892
 Alpha virt. eigenvalues --    1.06538   1.06701   1.09875   1.11570   1.12383
 Alpha virt. eigenvalues --    1.13870   1.14813   1.18615   1.19535   1.20060
 Alpha virt. eigenvalues --    1.20611   1.23336   1.23590   1.23969   1.24511
 Alpha virt. eigenvalues --    1.28046   1.33888   1.35516   1.42580   1.46215
 Alpha virt. eigenvalues --    1.48780   1.55248   1.57394   1.58392   1.59311
 Alpha virt. eigenvalues --    1.61525   1.62522   1.62952   1.64216   1.69891
 Alpha virt. eigenvalues --    1.70089   1.70775   1.71153   1.73336   1.74960
 Alpha virt. eigenvalues --    1.76758   1.79014   1.80789   1.81082   1.84373
 Alpha virt. eigenvalues --    1.90062   1.90248   1.91822   1.92570   1.93317
 Alpha virt. eigenvalues --    1.95735   1.97405   1.99032   1.99922   2.03405
 Alpha virt. eigenvalues --    2.03989   2.05493   2.07712   2.08744   2.09247
 Alpha virt. eigenvalues --    2.10212   2.11809   2.12810   2.16275   2.19735
 Alpha virt. eigenvalues --    2.24381   2.26009   2.28445   2.30534   2.34635
 Alpha virt. eigenvalues --    2.36926   2.39372   2.42918   2.47966   2.51118
 Alpha virt. eigenvalues --    2.52743   2.53179   2.53946   2.56472   2.57516
 Alpha virt. eigenvalues --    2.66602   2.69327   2.72304   2.72766   2.76343
 Alpha virt. eigenvalues --    2.80670   2.81330   2.84238   2.88414   2.89164
 Alpha virt. eigenvalues --    2.92868   2.93816   2.95607   2.98941   3.01422
 Alpha virt. eigenvalues --    3.02714   3.03858   3.04092   3.06614   3.07191
 Alpha virt. eigenvalues --    3.08439   3.11589   3.17713   3.18450   3.19450
 Alpha virt. eigenvalues --    3.22178   3.23986   3.27792   3.33698   3.35138
 Alpha virt. eigenvalues --    3.38642   3.45199   3.48256   3.49268   3.53188
 Alpha virt. eigenvalues --    3.55901   3.60441   3.73984   3.77036   3.79032
 Alpha virt. eigenvalues --    3.83941   3.88858   3.90684   3.99781   4.13985
 Alpha virt. eigenvalues --    4.28160   4.43412   4.44530   4.45891   4.52188
 Alpha virt. eigenvalues --    4.57396   4.61968   4.94316   4.97333   5.24577
 Alpha virt. eigenvalues --    5.60223   6.16599  23.80171  24.06889  24.15540
 Alpha virt. eigenvalues --   24.17371  24.21971  24.26350  24.41201  24.44295
 Alpha virt. eigenvalues --   24.51697  24.53422  50.19713
          Condensed to atoms (all electrons):
               1          2          3          4          5          6
     1  C   23.609359  -5.713083  -3.262983  -4.319746  -1.817304  -0.273495
     2  C   -5.713083  21.997485  -2.343173   0.397026  -3.048475  -5.073956
     3  C   -3.262983  -2.343173  10.292500   2.140717  -0.003779  -0.309529
     4  C   -4.319746   0.397026   2.140717   9.219109  -0.431815  -0.754553
     5  C   -1.817304  -3.048475  -0.003779  -0.431815   9.425691   2.345889
     6  C   -0.273495  -5.073956  -0.309529  -0.754553   2.345889  11.966334
     7  C   -1.504892   0.278376   0.285537  -0.617670   0.139708  -0.103176
     8  O    0.012880  -0.186354   0.220627  -0.027934   0.000373   0.157625
     9  C    1.098433  -0.803630  -0.798682   0.033975  -0.049466   0.396165
    10  H   -0.149869   0.068357   0.056383   0.499807   0.021104  -0.057898
    11  C   -0.519836   0.026936   0.299227  -0.036486   0.228792  -1.224593
    12  H   -0.010459  -0.075373  -0.054363   0.005050   0.504758   0.081134
    13  C   -1.399006   0.869390  -0.321728   0.368724  -1.104945  -1.453197
    14  H   -0.110525  -0.020929  -0.083401  -0.007115   0.018339   0.381545
    15  H   -0.078438   0.001546  -0.059225   0.028238  -0.032698   0.000383
    16  H   -0.235421  -0.025908   0.095738   0.016972  -0.019278   0.018911
    17  H    0.118962  -0.040102  -0.012716  -0.125857   0.023865   0.008557
    18  H   -0.023566   0.034829  -0.009937   0.021314  -0.060238  -0.030711
    19  H    0.041367  -0.034177   0.015166  -0.017771  -0.022201  -0.048168
               7          8          9         10         11         12
     1  C   -1.504892   0.012880   1.098433  -0.149869  -0.519836  -0.010459
     2  C    0.278376  -0.186354  -0.803630   0.068357   0.026936  -0.075373
     3  C    0.285537   0.220627  -0.798682   0.056383   0.299227  -0.054363
     4  C   -0.617670  -0.027934   0.033975   0.499807  -0.036486   0.005050
     5  C    0.139708   0.000373  -0.049466   0.021104   0.228792   0.504758
     6  C   -0.103176   0.157625   0.396165  -0.057898  -1.224593   0.081134
     7  C    7.169926  -0.331720   0.120558   0.029302   0.076644  -0.005580
     8  O   -0.331720   8.061630   0.037903  -0.000939   0.000941   0.000724
     9  C    0.120558   0.037903   6.113651  -0.129960  -0.318667   0.053844
    10  H    0.029302  -0.000939  -0.129960   0.500406   0.046736  -0.003584
    11  C    0.076644   0.000941  -0.318667   0.046736   6.569385  -0.123504
    12  H   -0.005580   0.000724   0.053844  -0.003584  -0.123504   0.505186
    13  C   -0.181205   0.105494   0.008633   0.001303   0.746569  -0.007878
    14  H   -0.001014   0.012783  -0.000055   0.000663   0.029084   0.000660
    15  H    0.551978  -0.038263  -0.074004   0.003370  -0.000801  -0.000939
    16  H    0.124858   0.236175  -0.008166   0.000764   0.005461  -0.000325
    17  H   -0.116401   0.003809   0.482540  -0.021674   0.000315   0.002027
    18  H   -0.002613  -0.000127   0.001746   0.000890   0.465909  -0.018668
    19  H    0.007217   0.000585  -0.001737  -0.000435  -0.051581   0.000462
              13         14         15         16         17         18
     1  C   -1.399006  -0.110525  -0.078438  -0.235421   0.118962  -0.023566
     2  C    0.869390  -0.020929   0.001546  -0.025908  -0.040102   0.034829
     3  C   -0.321728  -0.083401  -0.059225   0.095738  -0.012716  -0.009937
     4  C    0.368724  -0.007115   0.028238   0.016972  -0.125857   0.021314
     5  C   -1.104945   0.018339  -0.032698  -0.019278   0.023865  -0.060238
     6  C   -1.453197   0.381545   0.000383   0.018911   0.008557  -0.030711
     7  C   -0.181205  -0.001014   0.551978   0.124858  -0.116401  -0.002613
     8  O    0.105494   0.012783  -0.038263   0.236175   0.003809  -0.000127
     9  C    0.008633  -0.000055  -0.074004  -0.008166   0.482540   0.001746
    10  H    0.001303   0.000663   0.003370   0.000764  -0.021674   0.000890
    11  C    0.746569   0.029084  -0.000801   0.005461   0.000315   0.465909
    12  H   -0.007878   0.000660  -0.000939  -0.000325   0.002027  -0.018668
    13  C    8.144361   0.137791   0.017946   0.051199  -0.005907  -0.049448
    14  H    0.137791   0.569566   0.001927   0.000609  -0.000318   0.000034
    15  H    0.017946   0.001927   0.492484   0.005997  -0.021478  -0.000026
    16  H    0.051199   0.000609   0.005997   0.466080  -0.001491   0.000033
    17  H   -0.005907  -0.000318  -0.021478  -0.001491   0.512720  -0.000021
    18  H   -0.049448   0.000034  -0.000026   0.000033  -0.000021   0.503796
    19  H    0.451440  -0.019271   0.000069   0.000386  -0.000051  -0.012885
              19
     1  C    0.041367
     2  C   -0.034177
     3  C    0.015166
     4  C   -0.017771
     5  C   -0.022201
     6  C   -0.048168
     7  C    0.007217
     8  O    0.000585
     9  C   -0.001737
    10  H   -0.000435
    11  C   -0.051581
    12  H    0.000462
    13  C    0.451440
    14  H   -0.019271
    15  H    0.000069
    16  H    0.000386
    17  H   -0.000051
    18  H   -0.012885
    19  H    0.501258
 Mulliken charges:
               1
     1  C    0.537622
     2  C   -0.308783
     3  C   -0.146380
     4  C   -0.391985
     5  C   -0.118320
     6  C   -0.027269
     7  C    0.080167
     8  O   -0.266213
     9  C   -0.163083
    10  H    0.135275
    11  C   -0.220532
    12  H    0.146827
    13  C   -0.379536
    14  H    0.089628
    15  H    0.201933
    16  H    0.267406
    17  H    0.193221
    18  H    0.179692
    19  H    0.190328
 Sum of Mulliken charges =  -0.00000
 Mulliken charges with hydrogens summed into heavy atoms:
               1
     1  C    0.537622
     2  C   -0.308783
     3  C   -0.146380
     4  C   -0.256710
     5  C    0.028508
     6  C    0.062360
     7  C    0.282099
     8  O    0.001194
     9  C    0.030138
    11  C   -0.040840
    13  C   -0.189208
 Electronic spatial extent (au):  <R**2>=           1503.3349
 Charge=             -0.0000 electrons
 Dipole moment (field-independent basis, Debye):
    X=              0.9597    Y=             -0.5933    Z=              1.1000  Tot=              1.5758
 Quadrupole moment (field-independent basis, Debye-Ang):
   XX=            -56.9654   YY=            -56.8926   ZZ=            -66.7813
   XY=              3.3648   XZ=             -1.4626   YZ=              3.2688
 Traceless Quadrupole moment (field-independent basis, Debye-Ang):
   XX=              3.2477   YY=              3.3205   ZZ=             -6.5682
   XY=              3.3648   XZ=             -1.4626   YZ=              3.2688
 Octapole moment (field-independent basis, Debye-Ang**2):
  XXX=              3.9281  YYY=              4.1561  ZZZ=              0.9406  XYY=              6.0756
  XXY=             -7.5557  XXZ=              1.4413  XZZ=             -4.6388  YZZ=              7.0334
  YYZ=              9.3937  XYZ=             -4.5265
 Hexadecapole moment (field-independent basis, Debye-Ang**3):
 XXXX=          -1103.6146 YYYY=           -648.8947 ZZZZ=            -77.0885 XXXY=             19.2517
 XXXZ=             -1.7576 YYYX=              7.0536 YYYZ=             25.0377 ZZZX=             -1.3808
 ZZZY=              3.3706 XXYY=           -313.7887 XXZZ=           -235.1726 YYZZ=           -135.9902
 XXYZ=              5.1305 YYXZ=            -12.0720 ZZXY=            -10.1090
 N-N= 5.630227857659D+02 E-N=-2.200582358462D+03  KE= 4.616865652984D+02
 No NMR shielding tensors so no spin-rotation constants.
 Leave Link  601 at Mon Nov 21 14:54:25 2022, MaxMem= 16106127360 cpu:               3.7 elap:               0.1
 (Enter /opt/ap/G16/B01/g16/l9999.exe)
 1\1\GINC-N09\SP\RwB97XD\6-311++G(d,p)\C10H8O1\ROOT\21-Nov-2022\0\\#P w
 B97XD/6-311++G(d,p) scf=maxcycle=512\\_conf024.gjf nmol_natom 1_19\\0,
 1\C\C,1,1.40879539\C,1,1.42289824,2,117.24956717\C,2,1.41887971,1,119.
 07594714,3,0.16510261,0\C,2,1.42227783,1,117.46262303,3,-179.44443577,
 0\C,1,1.42440336,2,119.00293897,4,179.73740031,0\C,3,1.35510367,1,122.
 33979448,2,-0.36120568,0\O,3,1.37615658,1,115.04370777,2,-179.5931286,
 0\C,4,1.34577659,2,121.30210156,1,0.17277764,0\H,4,0.93023405,2,119.33
 469462,1,-179.75965297,0\C,5,1.34486794,2,122.06073707,1,-0.32265162,0
 \H,5,0.92957893,2,118.96449269,1,179.64671542,0\C,6,1.35980576,1,121.1
 112438,2,0.11625163,0\H,6,0.92999796,1,119.43671105,2,-179.87270235,0\
 H,7,0.93052813,3,120.28038366,1,-179.76477098,0\H,8,0.81991994,3,109.4
 8785721,1,-60.,0\H,9,0.93027331,4,119.71917791,2,179.60144151,0\H,11,0
 .92987565,5,119.70372857,2,-179.69197286,0\H,13,0.93032717,6,120.14524
 692,1,179.85241379,0\\Version=ES64L-G16RevB.01\State=1-A\HF=-460.88759
 17\RMSD=8.469e-09\Dipole=-0.3145743,-0.430677,0.3160841\Quadrupole=3.5
 017397,-4.827999,1.3262594,-0.4589149,2.2616602,2.6910137\PG=C01 [X(C1
 0H8O1)]\\@


 The lyf so short, the craft so long to lerne.
                             -- Chaucer
 Job cpu time:       0 days  0 hours 12 minutes 35.8 seconds.
 Elapsed time:       0 days  0 hours  0 minutes 23.8 seconds.
 File lengths (MBytes):  RWF=     51 Int=      0 D2E=      0 Chk=      6 Scr=      1
 Normal termination of Gaussian 16 at Mon Nov 21 14:54:25 2022.
