 Entering Gaussian System, Link 0=g16
 Input=_conf002.gjf
 Output=_conf002.log
 Initial command:
 /opt/ap/G16/B01/g16/l1.exe "/tmp2/scr/Gau-30336.inp" -scrdir="/tmp2/scr/"
 Entering Link 1 = /opt/ap/G16/B01/g16/l1.exe PID=     30337.
  
 Copyright (c) 1988-2017, Gaussian, Inc.  All Rights Reserved.
  
 This is part of the Gaussian(R) 16 program.  It is based on
 the Gaussian(R) 09 system (copyright 2009, Gaussian, Inc.),
 the Gaussian(R) 03 system (copyright 2003, Gaussian, Inc.),
 the Gaussian(R) 98 system (copyright 1998, Gaussian, Inc.),
 the Gaussian(R) 94 system (copyright 1995, Gaussian, Inc.),
 the Gaussian 92(TM) system (copyright 1992, Gaussian, Inc.),
 the Gaussian 90(TM) system (copyright 1990, Gaussian, Inc.),
 the Gaussian 88(TM) system (copyright 1988, Gaussian, Inc.),
 the Gaussian 86(TM) system (copyright 1986, Carnegie Mellon
 University), and the Gaussian 82(TM) system (copyright 1983,
 Carnegie Mellon University). Gaussian is a federally registered
 trademark of Gaussian, Inc.
  
 This software contains proprietary and confidential information,
 including trade secrets, belonging to Gaussian, Inc.
  
 This software is provided under written license and may be
 used, copied, transmitted, or stored only in accord with that
 written license.
  
 The following legend is applicable only to US Government
 contracts under FAR:
  
                    RESTRICTED RIGHTS LEGEND
  
 Use, reproduction and disclosure by the US Government is
 subject to restrictions as set forth in subparagraphs (a)
 and (c) of the Commercial Computer Software - Restricted
 Rights clause in FAR 52.227-19.
  
 Gaussian, Inc.
 340 Quinnipiac St., Bldg. 40, Wallingford CT 06492
  
  
 ---------------------------------------------------------------
 Warning -- This program may not be used in any manner that
 competes with the business of Gaussian, Inc. or will provide
 assistance to any competitor of Gaussian, Inc.  The licensee
 of this program is prohibited from giving any competitor of
 Gaussian, Inc. access to this program.  By using this program,
 the user acknowledges that Gaussian, Inc. is engaged in the
 business of creating and licensing software in the field of
 computational chemistry and represents and warrants to the
 licensee that it is not a competitor of Gaussian, Inc. and that
 it will not use this program in any manner prohibited above.
 ---------------------------------------------------------------
  

 Cite this work as:
 Gaussian 16, Revision B.01,
 M. J. Frisch, G. W. Trucks, H. B. Schlegel, G. E. Scuseria, 
 M. A. Robb, J. R. Cheeseman, G. Scalmani, V. Barone, 
 G. A. Petersson, H. Nakatsuji, X. Li, M. Caricato, A. V. Marenich, 
 J. Bloino, B. G. Janesko, R. Gomperts, B. Mennucci, H. P. Hratchian, 
 J. V. Ortiz, A. F. Izmaylov, J. L. Sonnenberg, D. Williams-Young, 
 F. Ding, F. Lipparini, F. Egidi, J. Goings, B. Peng, A. Petrone, 
 T. Henderson, D. Ranasinghe, V. G. Zakrzewski, J. Gao, N. Rega, 
 G. Zheng, W. Liang, M. Hada, M. Ehara, K. Toyota, R. Fukuda, 
 J. Hasegawa, M. Ishida, T. Nakajima, Y. Honda, O. Kitao, H. Nakai, 
 T. Vreven, K. Throssell, J. A. Montgomery, Jr., J. E. Peralta, 
 F. Ogliaro, M. J. Bearpark, J. J. Heyd, E. N. Brothers, K. N. Kudin, 
 V. N. Staroverov, T. A. Keith, R. Kobayashi, J. Normand, 
 K. Raghavachari, A. P. Rendell, J. C. Burant, S. S. Iyengar, 
 J. Tomasi, M. Cossi, J. M. Millam, M. Klene, C. Adamo, R. Cammi, 
 J. W. Ochterski, R. L. Martin, K. Morokuma, O. Farkas, 
 J. B. Foresman, and D. J. Fox, Gaussian, Inc., Wallingford CT, 2016.
 
 ******************************************
 Gaussian 16:  ES64L-G16RevB.01 20-Dec-2017
                21-Nov-2022 
 ******************************************
 %nprocshared=32
 Will use up to   32 processors via shared memory.
 %mem=120GB
 %chk=_conf002.chk
 ----------------------------------------
 #P wB97XD/6-311++G(d,p) scf=maxcycle=512
 ----------------------------------------
 1/38=1,172=1/1;
 2/12=2,17=6,18=5,40=1/2;
 3/5=4,6=6,7=1111,11=2,25=1,30=1,74=-58/1,2,3;
 4//1;
 5/5=2,7=512,38=5/2;
 6/7=2,8=2,9=2,10=2,28=1/1;
 99/5=1,9=1/99;
 Leave Link    1 at Mon Nov 21 14:51:28 2022, MaxMem= 16106127360 cpu:               4.3 elap:               0.2
 (Enter /opt/ap/G16/B01/g16/l101.exe)
 ----------------------------
 _conf002.gjf nmol_natom 1_19
 ----------------------------
 Symbolic Z-matrix:
 Charge =  0 Multiplicity = 1
 C
 C                    1     1.4088 
 C                    1     1.4229   2     117.24957 
 C                    2     1.41888  1     119.07595  3     0.1651   0
 C                    2     1.42228  1     117.46262  3    -179.44444  0
 C                    1     1.4244   2     119.00294  4     179.7374  0
 C                    3     1.3551   1     122.33979  2    -0.36121  0
 O                    3     1.37616  1     115.04371  2    -179.59313  0
 C                    4     1.34578  2     121.3021  1     0.17278  0
 H                    4     0.93023  2     119.33469  1    -179.75965  0
 C                    5     1.34487  2     122.06074  1    -0.32265  0
 H                    5     0.92958  2     118.96449  1     179.64672  0
 C                    6     1.35981  1     121.11124  2     0.11625  0
 H                    6     0.93     1     119.43671  2    -179.8727  0
 H                    7     0.93053  3     120.28038  1    -179.76477  0
 H                    8     0.81992  3     109.48786  1    -170.     0
 H                    9     0.93027  4     119.71918  2     179.60144  0
 H                    11    0.92988  5     119.70373  2    -179.69197  0
 H                    13    0.93033  6     120.14525  1     179.85241  0
 
 ITRead=  0  0  0  0  0  0  0  0  0  0  0  0  0  0  0  0  0  0  0
 MicOpt= -1 -1 -1 -1 -1 -1 -1 -1 -1 -1 -1 -1 -1 -1 -1 -1 -1 -1 -1
 NAtoms=     19 NQM=       19 NQMF=       0 NMMI=      0 NMMIF=      0
                NMic=       0 NMicF=      0.
                    Isotopes and Nuclear Properties:
 (Nuclear quadrupole moments (NQMom) in fm**2, nuclear magnetic moments (NMagM)
  in nuclear magnetons)

  Atom         1           2           3           4           5           6           7           8           9          10
 IAtWgt=          12          12          12          12          12          12          12          16          12           1
 AtmWgt=  12.0000000  12.0000000  12.0000000  12.0000000  12.0000000  12.0000000  12.0000000  15.9949146  12.0000000   1.0078250
 NucSpn=           0           0           0           0           0           0           0           0           0           1
 AtZEff=  -0.0000000  -0.0000000  -0.0000000  -0.0000000  -0.0000000  -0.0000000  -0.0000000  -0.0000000  -0.0000000  -0.0000000
 NQMom=    0.0000000   0.0000000   0.0000000   0.0000000   0.0000000   0.0000000   0.0000000   0.0000000   0.0000000   0.0000000
 NMagM=    0.0000000   0.0000000   0.0000000   0.0000000   0.0000000   0.0000000   0.0000000   0.0000000   0.0000000   2.7928460
 AtZNuc=   6.0000000   6.0000000   6.0000000   6.0000000   6.0000000   6.0000000   6.0000000   8.0000000   6.0000000   1.0000000

  Atom        11          12          13          14          15          16          17          18          19
 IAtWgt=          12           1          12           1           1           1           1           1           1
 AtmWgt=  12.0000000   1.0078250  12.0000000   1.0078250   1.0078250   1.0078250   1.0078250   1.0078250   1.0078250
 NucSpn=           0           1           0           1           1           1           1           1           1
 AtZEff=  -0.0000000  -0.0000000  -0.0000000  -0.0000000  -0.0000000  -0.0000000  -0.0000000  -0.0000000  -0.0000000
 NQMom=    0.0000000   0.0000000   0.0000000   0.0000000   0.0000000   0.0000000   0.0000000   0.0000000   0.0000000
 NMagM=    0.0000000   2.7928460   0.0000000   2.7928460   2.7928460   2.7928460   2.7928460   2.7928460   2.7928460
 AtZNuc=   6.0000000   1.0000000   6.0000000   1.0000000   1.0000000   1.0000000   1.0000000   1.0000000   1.0000000
 Leave Link  101 at Mon Nov 21 14:51:28 2022, MaxMem= 16106127360 cpu:               6.1 elap:               0.2
 (Enter /opt/ap/G16/B01/g16/l202.exe)
                          Input orientation:                          
 ---------------------------------------------------------------------
 Center     Atomic      Atomic             Coordinates (Angstroms)
 Number     Number       Type             X           Y           Z
 ---------------------------------------------------------------------
      1          6           0        0.000000    0.000000    0.000000
      2          6           0        0.000000    0.000000    1.408795
      3          6           0        1.264986    0.000000   -0.651498
      4          6           0        1.240062    0.003573    2.098326
      5          6           0       -1.261945   -0.012237    2.064707
      6          6           0       -1.245741   -0.009299   -0.690628
      7          6           0        2.433644    0.007218    0.034427
      8          8           0        1.212032    0.008854   -2.026607
      9          6           0        2.409936    0.010412    1.433147
     10          1           0        1.244276    0.000184    3.028545
     11          6           0       -2.421000   -0.017057    1.382624
     12          1           0       -1.286266   -0.017488    2.993953
     13          6           0       -2.424704   -0.015738   -0.013076
     14          1           0       -1.252769   -0.011151   -1.620598
     15          1           0        3.245045    0.010306   -0.421097
     16          1           0        1.961708   -0.125893   -2.330084
     17          1           0        3.210137    0.018260    1.907515
     18          1           0       -3.227740   -0.020753    1.845035
     19          1           0       -3.230632   -0.019714   -0.477804
 ---------------------------------------------------------------------
                    Distance matrix (angstroms):
                    1          2          3          4          5
     1  C    0.000000
     2  C    1.408795   0.000000
     3  C    1.422898   2.417643   0.000000
     4  C    2.437363   1.418880   2.749940   0.000000
     5  C    2.419849   1.422278   3.709892   2.502283   0.000000
     6  C    1.424403   2.441216   2.511049   3.735994   2.755385
     7  C    2.433898   2.794917   1.355104   2.384184   4.216609
     8  O    2.361406   3.642951   1.376157   4.125032   4.781198
     9  C    2.803892   2.410081   2.378396   1.345777   3.725867
    10  H    3.274188   2.042501   3.680101   0.930234   2.685197
    11  C    2.788042   2.421201   4.210040   3.730420   1.344868
    12  H    3.258610   2.041448   4.449551   2.680471   0.929579
    13  C    2.424790   2.810899   3.744548   4.229527   2.381009
    14  H    2.048388   3.278228   2.697845   4.477144   3.685317
    15  H    3.272269   3.725443   1.993445   3.219859   5.147104
    16  H    3.048514   4.224141   1.821790   4.488691   5.451517
    17  H    3.734157   3.248697   3.214420   1.979348   4.474947
    18  H    3.717915   3.257153   5.139815   4.475043   1.978050
    19  H    3.265834   3.741207   4.499015   5.159854   3.215610
                    6          7          8          9         10
     6  C    0.000000
     7  C    3.750180   0.000000
     8  O    2.797466   2.395871   0.000000
     9  C    4.227858   1.398925   3.661267   0.000000
    10  H    4.475771   3.221706   5.055262   1.975895   0.000000
    11  C    2.383205   5.038431   4.982213   4.831278   4.017910
    12  H    3.684813   4.753644   5.607870   4.012331   2.530840
    13  C    1.359806   4.858634   4.157013   5.046383   4.765829
    14  H    0.929998   4.040926   2.498097   4.768777   5.277300
    15  H    4.498910   0.930528   2.590522   2.033624   3.987882
    16  H    3.604045   2.414819   0.819920   3.792281   5.407911
    17  H    5.158096   2.027689   4.412463   0.930273   2.263105
    18  H    3.218391   5.943934   5.890846   5.652788   4.626021
    19  H    1.996295   5.687453   4.704984   5.955556   5.685040
                   11         12         13         14         15
    11  C    0.000000
    12  H    1.970788   0.000000
    13  C    1.395705   3.215317   0.000000
    14  H    3.222443   4.614677   1.989366   0.000000
    15  H    5.946277   5.674162   5.684470   4.655061   0.000000
    16  H    5.744925   6.237504   4.961982   3.293843   2.304286
    17  H    5.655657   4.625934   5.953256   5.689110   2.328887
    18  H    0.929876   2.255958   2.024221   3.988887   6.858080
    19  H    2.028966   3.979153   0.930327   2.284293   6.475995
                   16         17         18         19
    16  H    0.000000
    17  H    4.420022   0.000000
    18  H    6.661310   6.438299   0.000000
    19  H    5.513856   6.868384   2.322841   0.000000
 Stoichiometry    C10H8O
 Framework group  C1[X(C10H8O)]
 Deg. of freedom    51
 Full point group                 C1      NOp   1
 Largest Abelian subgroup         C1      NOp   1
 Largest concise Abelian subgroup C1      NOp   1
                         Standard orientation:                         
 ---------------------------------------------------------------------
 Center     Atomic      Atomic             Coordinates (Angstroms)
 Number     Number       Type             X           Y           Z
 ---------------------------------------------------------------------
      1          6           0        0.032523    0.430127   -0.005148
      2          6           0        0.374365   -0.936563   -0.002903
      3          6           0       -1.352733    0.755219   -0.000373
      4          6           0       -0.661327   -1.906383    0.000320
      5          6           0        1.757791   -1.266641    0.004580
      6          6           0        1.073481    1.402406   -0.002673
      7          6           0       -2.320044   -0.193788   -0.001128
      8          8           0       -1.635066    2.102055   -0.011661
      9          6           0       -1.957660   -1.544961   -0.002202
     10          1           0       -0.439684   -2.809814    0.005212
     11          6           0        2.716710   -0.323698    0.002987
     12          1           0        2.006887   -2.162199    0.011199
     13          6           0        2.381633    1.031183   -0.000572
     14          1           0        0.854650    2.306291   -0.002335
     15          1           0       -3.217734    0.051235   -0.001213
     16          1           0       -2.435421    2.214918    0.126045
     17          1           0       -2.618867   -2.199332   -0.005618
     18          1           0        3.611552   -0.576532    0.003713
     19          1           0        3.050719    1.677583   -0.001041
 ---------------------------------------------------------------------
 Rotational constants (GHZ):           2.0147015           1.1468720           0.7308799
 Leave Link  202 at Mon Nov 21 14:51:28 2022, MaxMem= 16106127360 cpu:               0.6 elap:               0.0
 (Enter /opt/ap/G16/B01/g16/l301.exe)
 Standard basis: 6-311++G(d,p) (5D, 7F)
 Ernie: Thresh=  0.10000D-02 Tol=  0.10000D-05 Strict=F.
 There are   309 symmetry adapted cartesian basis functions of A   symmetry.
 There are   298 symmetry adapted basis functions of A   symmetry.
   298 basis functions,   468 primitive gaussians,   309 cartesian basis functions
    38 alpha electrons       38 beta electrons
       nuclear repulsion energy       562.3647527840 Hartrees.
 IExCor= 4639 DFT=T Ex+Corr=wB97XD ExCW=0 ScaHFX=  1.000000
 ScaDFX=  1.000000  1.000000  1.000000  1.000000 ScalE2=  1.000000  1.000000
 IRadAn=      5 IRanWt=     -1 IRanGd=            0 ICorTp=0 IEmpDi=121
 HFx  wShort=  0.000000 wLong=  0.200000 cFull=  0.222036 cShort=  0.000000 cLong=  0.777964
 DFx  wShort=  0.000000 wLong=  0.200000 cFull=  0.000000 cShort=  0.000000 cLong=  1.000000
 NAtoms=   19 NActive=   19 NUniq=   19 SFac= 1.00D+00 NAtFMM=   60 NAOKFM=F Big=F
 Integral buffers will be    131072 words long.
 Raffenetti 2 integral format.
 Two-electron integral symmetry is turned on.
 R6Disp:  Grimme-D2 Dispersion energy=       -0.0101967218 Hartrees.
 Nuclear repulsion after empirical dispersion term =      562.3545560622 Hartrees.
 Leave Link  301 at Mon Nov 21 14:51:28 2022, MaxMem= 16106127360 cpu:               1.3 elap:               0.0
 (Enter /opt/ap/G16/B01/g16/l302.exe)
 NPDir=0 NMtPBC=     1 NCelOv=     1 NCel=       1 NClECP=     1 NCelD=      1
         NCelK=      1 NCelE2=     1 NClLst=     1 CellRange=     0.0.
 One-electron integrals computed using PRISM.
 One-electron integral symmetry used in STVInt
 NBasis=   298 RedAO= T EigKep=  1.12D-06  NBF=   298
 NBsUse=   296 1.00D-06 EigRej=  5.84D-07 NBFU=   296
 Precomputing XC quadrature grid using
 IXCGrd= 4 IRadAn=           5 IRanWt=          -1 IRanGd=           0 AccXCQ= 0.00D+00.
 Generated NRdTot=       0 NPtTot=           0 NUsed=           0 NTot=          32
 NSgBfM=   309   309   309   309   309 MxSgAt=    19 MxSgA2=    19.
 Leave Link  302 at Mon Nov 21 14:51:28 2022, MaxMem= 16106127360 cpu:               7.1 elap:               0.2
 (Enter /opt/ap/G16/B01/g16/l303.exe)
 DipDrv:  MaxL=1.
 Leave Link  303 at Mon Nov 21 14:51:28 2022, MaxMem= 16106127360 cpu:               1.6 elap:               0.1
 (Enter /opt/ap/G16/B01/g16/l401.exe)
 ExpMin= 3.60D-02 ExpMax= 8.59D+03 ExpMxC= 1.30D+03 IAcc=3 IRadAn=         5 AccDes= 0.00D+00
 Harris functional with IExCor= 4639 and IRadAn=       5 diagonalized for initial guess.
 HarFok:  IExCor= 4639 AccDes= 0.00D+00 IRadAn=         5 IDoV= 1 UseB2=F ITyADJ=14
 ICtDFT=  3500011 ScaDFX=  1.000000  1.000000  1.000000  1.000000
 FoFCou: FMM=F IPFlag=           0 FMFlag=      100000 FMFlg1=           0
         NFxFlg=           0 DoJE=T BraDBF=F KetDBF=T FulRan=T
         wScrn=  0.000000 ICntrl=       500 IOpCl=  0 I1Cent=   200000004 NGrid=           0
         NMat0=    1 NMatS0=      1 NMatT0=    0 NMatD0=    1 NMtDS0=    0 NMtDT0=    0
 Petite list used in FoFCou.
 Harris En= -440.620626752140    
 JPrj=0 DoOrth=F DoCkMO=F.
 Leave Link  401 at Mon Nov 21 14:51:29 2022, MaxMem= 16106127360 cpu:              17.9 elap:               0.6
 (Enter /opt/ap/G16/B01/g16/l502.exe)
 Integral symmetry usage will be decided dynamically.
 Closed shell SCF:
 Using DIIS extrapolation, IDIIS=  1040.
 NGot= 16106127360 LenX= 16105923535 LenY= 16105827613
 Requested convergence on RMS density matrix=1.00D-08 within 512 cycles.
 Requested convergence on MAX density matrix=1.00D-06.
 Requested convergence on             energy=1.00D-06.
 No special actions if energy rises.
 Fock matrices will be formed incrementally for  20 cycles.

 Cycle   1  Pass 1  IDiag  1:
 FoFJK:  IHMeth= 1 ICntrl=       0 DoSepK=T KAlg= 0 I1Cent=           0 FoldK=F
 IRaf=         1 NMat=       1 IRICut=       1 DoRegI=T DoRafI=F ISym2E= 0 IDoP0=0 IntGTp=1.
 FoFCou: FMM=F IPFlag=           0 FMFlag=      100000 FMFlg1=           0
         NFxFlg=           0 DoJE=T BraDBF=F KetDBF=F FulRan=T
         wScrn=  0.000000 ICntrl=       500 IOpCl=  0 I1Cent=           0 NGrid=           0
         NMat0=    1 NMatS0=      1 NMatT0=    0 NMatD0=    1 NMtDS0=    0 NMtDT0=    0
 Symmetry not used in FoFCou.
 E= -460.748799283713    
 DIIS: error= 4.31D-02 at cycle   1 NSaved=   1.
 NSaved= 1 IEnMin= 1 EnMin= -460.748799283713     IErMin= 1 ErrMin= 4.31D-02
 ErrMax= 4.31D-02  0.00D+00 EMaxC= 1.00D-01 BMatC= 9.62D-01 BMatP= 9.62D-01
 IDIUse=3 WtCom= 5.69D-01 WtEn= 4.31D-01
 Coeff-Com:  0.100D+01
 Coeff-En:   0.100D+01
 Coeff:      0.100D+01
 Gap=     0.346 Goal=   None    Shift=    0.000
 GapD=    0.346 DampG=1.000 DampE=0.500 DampFc=0.5000 IDamp=-1.
 Damping current iteration by 5.00D-01
 RMSDP=3.87D-02 MaxDP=3.82D+00              OVMax= 1.44D-01

 Cycle   2  Pass 1  IDiag  1:
 RMSU=  8.64D-03    CP:  8.37D-01
 E= -460.818940710364     Delta-E=       -0.070141426651 Rises=F Damp=T
 DIIS: error= 2.11D-02 at cycle   2 NSaved=   2.
 NSaved= 2 IEnMin= 2 EnMin= -460.818940710364     IErMin= 2 ErrMin= 2.11D-02
 ErrMax= 2.11D-02  0.00D+00 EMaxC= 1.00D-01 BMatC= 2.08D-01 BMatP= 9.62D-01
 IDIUse=3 WtCom= 7.89D-01 WtEn= 2.11D-01
 Coeff-Com: -0.695D+00 0.169D+01
 Coeff-En:   0.000D+00 0.100D+01
 Coeff:     -0.548D+00 0.155D+01
 Gap=     0.346 Goal=   None    Shift=    0.000
 RMSDP=2.09D-02 MaxDP=1.83D+00 DE=-7.01D-02 OVMax= 1.53D-01

 Cycle   3  Pass 1  IDiag  1:
 RMSU=  9.81D-03    CP:  6.70D-01  1.64D+00
 E= -460.859123032393     Delta-E=       -0.040182322029 Rises=F Damp=F
 DIIS: error= 1.18D-02 at cycle   3 NSaved=   3.
 NSaved= 3 IEnMin= 3 EnMin= -460.859123032393     IErMin= 3 ErrMin= 1.18D-02
 ErrMax= 1.18D-02  0.00D+00 EMaxC= 1.00D-01 BMatC= 3.80D-02 BMatP= 2.08D-01
 IDIUse=3 WtCom= 8.82D-01 WtEn= 1.18D-01
 Coeff-Com: -0.381D+00 0.808D+00 0.572D+00
 Coeff-En:   0.000D+00 0.000D+00 0.100D+01
 Coeff:     -0.336D+00 0.713D+00 0.623D+00
 Gap=     0.318 Goal=   None    Shift=    0.000
 RMSDP=9.02D-03 MaxDP=7.33D-01 DE=-4.02D-02 OVMax= 7.10D-02

 Cycle   4  Pass 1  IDiag  1:
 RMSU=  3.30D-03    CP:  6.26D-01  1.53D+00  2.95D-01
 E= -460.891532037316     Delta-E=       -0.032409004923 Rises=F Damp=F
 DIIS: error= 2.07D-03 at cycle   4 NSaved=   4.
 NSaved= 4 IEnMin= 4 EnMin= -460.891532037316     IErMin= 4 ErrMin= 2.07D-03
 ErrMax= 2.07D-03  0.00D+00 EMaxC= 1.00D-01 BMatC= 1.51D-03 BMatP= 3.80D-02
 IDIUse=3 WtCom= 9.79D-01 WtEn= 2.07D-02
 Coeff-Com: -0.137D+00 0.292D+00 0.297D+00 0.548D+00
 Coeff-En:   0.000D+00 0.000D+00 0.000D+00 0.100D+01
 Coeff:     -0.135D+00 0.286D+00 0.291D+00 0.557D+00
 Gap=     0.307 Goal=   None    Shift=    0.000
 RMSDP=1.43D-03 MaxDP=9.78D-02 DE=-3.24D-02 OVMax= 1.05D-02

 Cycle   5  Pass 1  IDiag  1:
 RMSU=  4.04D-04    CP:  6.31D-01  1.55D+00  4.06D-01  8.10D-01
 E= -460.892847792187     Delta-E=       -0.001315754871 Rises=F Damp=F
 DIIS: error= 3.44D-04 at cycle   5 NSaved=   5.
 NSaved= 5 IEnMin= 5 EnMin= -460.892847792187     IErMin= 5 ErrMin= 3.44D-04
 ErrMax= 3.44D-04  0.00D+00 EMaxC= 1.00D-01 BMatC= 1.79D-05 BMatP= 1.51D-03
 IDIUse=3 WtCom= 9.97D-01 WtEn= 3.44D-03
 Coeff-Com:  0.101D-01-0.213D-01 0.488D-02 0.114D+00 0.893D+00
 Coeff-En:   0.000D+00 0.000D+00 0.000D+00 0.000D+00 0.100D+01
 Coeff:      0.100D-01-0.212D-01 0.486D-02 0.113D+00 0.893D+00
 Gap=     0.308 Goal=   None    Shift=    0.000
 RMSDP=2.81D-04 MaxDP=1.78D-02 DE=-1.32D-03 OVMax= 3.06D-03

 Cycle   6  Pass 1  IDiag  1:
 RMSU=  1.63D-04    CP:  6.30D-01  1.54D+00  3.93D-01  8.52D-01  9.98D-01
 E= -460.892877143583     Delta-E=       -0.000029351396 Rises=F Damp=F
 DIIS: error= 2.23D-04 at cycle   6 NSaved=   6.
 NSaved= 6 IEnMin= 6 EnMin= -460.892877143583     IErMin= 6 ErrMin= 2.23D-04
 ErrMax= 2.23D-04  0.00D+00 EMaxC= 1.00D-01 BMatC= 3.74D-06 BMatP= 1.79D-05
 IDIUse=3 WtCom= 9.98D-01 WtEn= 2.23D-03
 Coeff-Com:  0.169D-01-0.361D-01-0.256D-01-0.161D-01 0.320D+00 0.741D+00
 Coeff-En:   0.000D+00 0.000D+00 0.000D+00 0.000D+00 0.000D+00 0.100D+01
 Coeff:      0.169D-01-0.360D-01-0.256D-01-0.161D-01 0.320D+00 0.741D+00
 Gap=     0.308 Goal=   None    Shift=    0.000
 RMSDP=9.37D-05 MaxDP=5.71D-03 DE=-2.94D-05 OVMax= 1.23D-03

 Cycle   7  Pass 1  IDiag  1:
 RMSU=  5.08D-05    CP:  6.30D-01  1.54D+00  3.91D-01  8.55D-01  1.08D+00
                    CP:  1.07D+00
 E= -460.892883282419     Delta-E=       -0.000006138835 Rises=F Damp=F
 DIIS: error= 6.75D-05 at cycle   7 NSaved=   7.
 NSaved= 7 IEnMin= 7 EnMin= -460.892883282419     IErMin= 7 ErrMin= 6.75D-05
 ErrMax= 6.75D-05  0.00D+00 EMaxC= 1.00D-01 BMatC= 3.08D-07 BMatP= 3.74D-06
 IDIUse=1 WtCom= 1.00D+00 WtEn= 0.00D+00
 Coeff-Com:  0.128D-02-0.268D-02-0.280D-02-0.128D-01-0.629D-01 0.106D+00
 Coeff-Com:  0.974D+00
 Coeff:      0.128D-02-0.268D-02-0.280D-02-0.128D-01-0.629D-01 0.106D+00
 Coeff:      0.974D+00
 Gap=     0.308 Goal=   None    Shift=    0.000
 RMSDP=3.50D-05 MaxDP=1.90D-03 DE=-6.14D-06 OVMax= 7.32D-04

 Cycle   8  Pass 1  IDiag  1:
 RMSU=  1.88D-05    CP:  6.29D-01  1.54D+00  3.90D-01  8.58D-01  1.10D+00
                    CP:  1.19D+00  1.17D+00
 E= -460.892884224859     Delta-E=       -0.000000942441 Rises=F Damp=F
 DIIS: error= 2.64D-05 at cycle   8 NSaved=   8.
 NSaved= 8 IEnMin= 8 EnMin= -460.892884224859     IErMin= 8 ErrMin= 2.64D-05
 ErrMax= 2.64D-05  0.00D+00 EMaxC= 1.00D-01 BMatC= 9.19D-08 BMatP= 3.08D-07
 IDIUse=1 WtCom= 1.00D+00 WtEn= 0.00D+00
 Coeff-Com: -0.194D-02 0.419D-02 0.300D-02-0.215D-02-0.749D-01-0.665D-01
 Coeff-Com:  0.411D+00 0.727D+00
 Coeff:     -0.194D-02 0.419D-02 0.300D-02-0.215D-02-0.749D-01-0.665D-01
 Coeff:      0.411D+00 0.727D+00
 Gap=     0.308 Goal=   None    Shift=    0.000
 RMSDP=1.16D-05 MaxDP=1.30D-03 DE=-9.42D-07 OVMax= 2.12D-04

 Cycle   9  Pass 1  IDiag  1:
 RMSU=  6.39D-06    CP:  6.30D-01  1.54D+00  3.90D-01  8.57D-01  1.10D+00
                    CP:  1.23D+00  1.25D+00  9.20D-01
 E= -460.892884400873     Delta-E=       -0.000000176014 Rises=F Damp=F
 DIIS: error= 1.13D-05 at cycle   9 NSaved=   9.
 NSaved= 9 IEnMin= 9 EnMin= -460.892884400873     IErMin= 9 ErrMin= 1.13D-05
 ErrMax= 1.13D-05  0.00D+00 EMaxC= 1.00D-01 BMatC= 7.76D-09 BMatP= 9.19D-08
 IDIUse=1 WtCom= 1.00D+00 WtEn= 0.00D+00
 Coeff-Com: -0.734D-03 0.157D-02 0.139D-02 0.149D-02-0.134D-01-0.371D-01
 Coeff-Com: -0.248D-01 0.184D+00 0.888D+00
 Coeff:     -0.734D-03 0.157D-02 0.139D-02 0.149D-02-0.134D-01-0.371D-01
 Coeff:     -0.248D-01 0.184D+00 0.888D+00
 Gap=     0.308 Goal=   None    Shift=    0.000
 RMSDP=5.51D-06 MaxDP=4.40D-04 DE=-1.76D-07 OVMax= 1.25D-04

 Cycle  10  Pass 1  IDiag  1:
 RMSU=  3.07D-06    CP:  6.30D-01  1.54D+00  3.90D-01  8.56D-01  1.10D+00
                    CP:  1.24D+00  1.28D+00  9.37D-01  1.08D+00
 E= -460.892884427653     Delta-E=       -0.000000026780 Rises=F Damp=F
 DIIS: error= 5.88D-06 at cycle  10 NSaved=  10.
 NSaved=10 IEnMin=10 EnMin= -460.892884427653     IErMin=10 ErrMin= 5.88D-06
 ErrMax= 5.88D-06  0.00D+00 EMaxC= 1.00D-01 BMatC= 1.28D-09 BMatP= 7.76D-09
 IDIUse=1 WtCom= 1.00D+00 WtEn= 0.00D+00
 Coeff-Com:  0.448D-04-0.101D-03 0.226D-04 0.735D-03 0.571D-02-0.133D-02
 Coeff-Com: -0.532D-01-0.711D-01 0.226D+00 0.894D+00
 Coeff:      0.448D-04-0.101D-03 0.226D-04 0.735D-03 0.571D-02-0.133D-02
 Coeff:     -0.532D-01-0.711D-01 0.226D+00 0.894D+00
 Gap=     0.308 Goal=   None    Shift=    0.000
 RMSDP=1.56D-06 MaxDP=1.11D-04 DE=-2.68D-08 OVMax= 4.58D-05

 Cycle  11  Pass 1  IDiag  1:
 RMSU=  8.37D-07    CP:  6.30D-01  1.54D+00  3.90D-01  8.56D-01  1.10D+00
                    CP:  1.24D+00  1.27D+00  9.51D-01  1.15D+00  1.15D+00
 E= -460.892884431768     Delta-E=       -0.000000004115 Rises=F Damp=F
 DIIS: error= 1.88D-06 at cycle  11 NSaved=  11.
 NSaved=11 IEnMin=11 EnMin= -460.892884431768     IErMin=11 ErrMin= 1.88D-06
 ErrMax= 1.88D-06  0.00D+00 EMaxC= 1.00D-01 BMatC= 2.58D-10 BMatP= 1.28D-09
 IDIUse=1 WtCom= 1.00D+00 WtEn= 0.00D+00
 Coeff-Com:  0.138D-03-0.297D-03-0.219D-03 0.428D-04 0.421D-02 0.520D-02
 Coeff-Com: -0.124D-01-0.612D-01-0.621D-01 0.333D+00 0.794D+00
 Coeff:      0.138D-03-0.297D-03-0.219D-03 0.428D-04 0.421D-02 0.520D-02
 Coeff:     -0.124D-01-0.612D-01-0.621D-01 0.333D+00 0.794D+00
 Gap=     0.308 Goal=   None    Shift=    0.000
 RMSDP=4.18D-07 MaxDP=2.15D-05 DE=-4.11D-09 OVMax= 1.69D-05

 Cycle  12  Pass 1  IDiag  1:
 RMSU=  2.95D-07    CP:  6.30D-01  1.54D+00  3.90D-01  8.56D-01  1.10D+00
                    CP:  1.24D+00  1.27D+00  9.50D-01  1.17D+00  1.21D+00
                    CP:  1.08D+00
 E= -460.892884432436     Delta-E=       -0.000000000668 Rises=F Damp=F
 DIIS: error= 8.09D-07 at cycle  12 NSaved=  12.
 NSaved=12 IEnMin=12 EnMin= -460.892884432436     IErMin=12 ErrMin= 8.09D-07
 ErrMax= 8.09D-07  0.00D+00 EMaxC= 1.00D-01 BMatC= 1.86D-11 BMatP= 2.58D-10
 IDIUse=1 WtCom= 1.00D+00 WtEn= 0.00D+00
 Coeff-Com:  0.472D-05-0.925D-05-0.239D-04-0.114D-03-0.521D-03 0.418D-03
 Coeff-Com:  0.870D-02 0.484D-02-0.429D-01-0.101D+00 0.461D-02 0.113D+01
 Coeff:      0.472D-05-0.925D-05-0.239D-04-0.114D-03-0.521D-03 0.418D-03
 Coeff:      0.870D-02 0.484D-02-0.429D-01-0.101D+00 0.461D-02 0.113D+01
 Gap=     0.308 Goal=   None    Shift=    0.000
 RMSDP=2.68D-07 MaxDP=1.82D-05 DE=-6.68D-10 OVMax= 8.42D-06

 Cycle  13  Pass 1  IDiag  1:
 RMSU=  1.31D-07    CP:  6.30D-01  1.54D+00  3.90D-01  8.56D-01  1.10D+00
                    CP:  1.24D+00  1.27D+00  9.46D-01  1.16D+00  1.23D+00
                    CP:  1.20D+00  1.29D+00
 E= -460.892884432540     Delta-E=       -0.000000000104 Rises=F Damp=F
 DIIS: error= 2.68D-07 at cycle  13 NSaved=  13.
 NSaved=13 IEnMin=13 EnMin= -460.892884432540     IErMin=13 ErrMin= 2.68D-07
 ErrMax= 2.68D-07  0.00D+00 EMaxC= 1.00D-01 BMatC= 4.22D-12 BMatP= 1.86D-11
 IDIUse=1 WtCom= 1.00D+00 WtEn= 0.00D+00
 Coeff-Com: -0.100D-04 0.218D-04 0.103D-04-0.459D-04-0.523D-03-0.326D-03
 Coeff-Com:  0.426D-02 0.716D-02-0.900D-02-0.589D-01-0.751D-01 0.401D+00
 Coeff-Com:  0.731D+00
 Coeff:     -0.100D-04 0.218D-04 0.103D-04-0.459D-04-0.523D-03-0.326D-03
 Coeff:      0.426D-02 0.716D-02-0.900D-02-0.589D-01-0.751D-01 0.401D+00
 Coeff:      0.731D+00
 Gap=     0.308 Goal=   None    Shift=    0.000
 RMSDP=7.17D-08 MaxDP=5.04D-06 DE=-1.04D-10 OVMax= 2.00D-06

 Cycle  14  Pass 1  IDiag  1:
 RMSU=  3.86D-08    CP:  6.30D-01  1.54D+00  3.90D-01  8.56D-01  1.10D+00
                    CP:  1.24D+00  1.27D+00  9.45D-01  1.16D+00  1.23D+00
                    CP:  1.21D+00  1.37D+00  1.20D+00
 E= -460.892884432550     Delta-E=       -0.000000000010 Rises=F Damp=F
 DIIS: error= 1.11D-07 at cycle  14 NSaved=  14.
 NSaved=14 IEnMin=14 EnMin= -460.892884432550     IErMin=14 ErrMin= 1.11D-07
 ErrMax= 1.11D-07  0.00D+00 EMaxC= 1.00D-01 BMatC= 7.57D-13 BMatP= 4.22D-12
 IDIUse=1 WtCom= 1.00D+00 WtEn= 0.00D+00
 Coeff-Com: -0.260D-05 0.551D-05 0.473D-05 0.106D-05-0.306D-04-0.155D-03
 Coeff-Com: -0.607D-03 0.931D-03 0.501D-02 0.485D-02-0.245D-01-0.116D+00
 Coeff-Com:  0.216D+00 0.915D+00
 Coeff:     -0.260D-05 0.551D-05 0.473D-05 0.106D-05-0.306D-04-0.155D-03
 Coeff:     -0.607D-03 0.931D-03 0.501D-02 0.485D-02-0.245D-01-0.116D+00
 Coeff:      0.216D+00 0.915D+00
 Gap=     0.308 Goal=   None    Shift=    0.000
 RMSDP=4.18D-08 MaxDP=1.88D-06 DE=-1.01D-11 OVMax= 1.26D-06

 Cycle  15  Pass 1  IDiag  1:
 RMSU=  1.84D-08    CP:  6.30D-01  1.54D+00  3.90D-01  8.56D-01  1.10D+00
                    CP:  1.24D+00  1.27D+00  9.45D-01  1.16D+00  1.23D+00
                    CP:  1.20D+00  1.40D+00  1.32D+00  1.08D+00
 E= -460.892884432550     Delta-E=        0.000000000001 Rises=F Damp=F
 DIIS: error= 3.55D-08 at cycle  15 NSaved=  15.
 NSaved=15 IEnMin=14 EnMin= -460.892884432550     IErMin=15 ErrMin= 3.55D-08
 ErrMax= 3.55D-08  0.00D+00 EMaxC= 1.00D-01 BMatC= 1.24D-13 BMatP= 7.57D-13
 IDIUse=1 WtCom= 1.00D+00 WtEn= 0.00D+00
 Coeff-Com: -0.112D-06 0.153D-06 0.101D-05 0.617D-05 0.531D-04-0.187D-04
 Coeff-Com: -0.741D-03-0.530D-03 0.239D-02 0.883D-02 0.230D-02-0.928D-01
 Coeff-Com: -0.405D-01 0.298D+00 0.823D+00
 Coeff:     -0.112D-06 0.153D-06 0.101D-05 0.617D-05 0.531D-04-0.187D-04
 Coeff:     -0.741D-03-0.530D-03 0.239D-02 0.883D-02 0.230D-02-0.928D-01
 Coeff:     -0.405D-01 0.298D+00 0.823D+00
 Gap=     0.308 Goal=   None    Shift=    0.000
 RMSDP=2.17D-08 MaxDP=1.23D-06 DE= 7.96D-13 OVMax= 5.13D-07

 Cycle  16  Pass 1  IDiag  1:
 RMSU=  6.36D-09    CP:  6.30D-01  1.54D+00  3.90D-01  8.56D-01  1.10D+00
                    CP:  1.24D+00  1.27D+00  9.45D-01  1.16D+00  1.23D+00
                    CP:  1.20D+00  1.40D+00  1.37D+00  1.19D+00  1.20D+00
 E= -460.892884432560     Delta-E=       -0.000000000010 Rises=F Damp=F
 DIIS: error= 1.51D-08 at cycle  16 NSaved=  16.
 NSaved=16 IEnMin=16 EnMin= -460.892884432560     IErMin=16 ErrMin= 1.51D-08
 ErrMax= 1.51D-08  0.00D+00 EMaxC= 1.00D-01 BMatC= 2.39D-14 BMatP= 1.24D-13
 IDIUse=1 WtCom= 1.00D+00 WtEn= 0.00D+00
 Coeff-Com:  0.594D-06-0.130D-05-0.824D-06 0.181D-05 0.294D-04 0.336D-04
 Coeff-Com: -0.160D-03-0.405D-03-0.100D-03 0.279D-02 0.768D-02-0.116D-01
 Coeff-Com: -0.717D-01-0.769D-01 0.269D+00 0.881D+00
 Coeff:      0.594D-06-0.130D-05-0.824D-06 0.181D-05 0.294D-04 0.336D-04
 Coeff:     -0.160D-03-0.405D-03-0.100D-03 0.279D-02 0.768D-02-0.116D-01
 Coeff:     -0.717D-01-0.769D-01 0.269D+00 0.881D+00
 Gap=     0.308 Goal=   None    Shift=    0.000
 RMSDP=1.33D-08 MaxDP=6.81D-07 DE=-1.03D-11 OVMax= 2.34D-07

 Cycle  17  Pass 1  IDiag  1:
 RMSU=  3.03D-09    CP:  6.30D-01  1.54D+00  3.90D-01  8.56D-01  1.10D+00
                    CP:  1.24D+00  1.27D+00  9.45D-01  1.16D+00  1.23D+00
                    CP:  1.20D+00  1.40D+00  1.38D+00  1.24D+00  1.33D+00
                    CP:  1.23D+00
 E= -460.892884432538     Delta-E=        0.000000000022 Rises=F Damp=F
 DIIS: error= 6.21D-09 at cycle  17 NSaved=  17.
 NSaved=17 IEnMin=16 EnMin= -460.892884432560     IErMin=17 ErrMin= 6.21D-09
 ErrMax= 6.21D-09  0.00D+00 EMaxC= 1.00D-01 BMatC= 1.60D-15 BMatP= 2.39D-14
 IDIUse=1 WtCom= 1.00D+00 WtEn= 0.00D+00
 Large coefficients: NSaved= 17 BigCof=    0.00 CofMax=   10.00 Det=-8.52D-15
 Inversion failed.  Reducing to 16 matrices.
 Large coefficients: NSaved= 16 BigCof=    0.00 CofMax=   10.00 Det=-8.88D-15
 Inversion failed.  Reducing to 15 matrices.
 Coeff-Com: -0.106D-06-0.554D-06-0.530D-05 0.561D-05 0.735D-04 0.544D-04
 Coeff-Com: -0.315D-03-0.117D-02 0.485D-03 0.113D-01-0.133D-02-0.279D-01
 Coeff-Com: -0.955D-01 0.296D-01 0.108D+01
 Coeff:     -0.106D-06-0.554D-06-0.530D-05 0.561D-05 0.735D-04 0.544D-04
 Coeff:     -0.315D-03-0.117D-02 0.485D-03 0.113D-01-0.133D-02-0.279D-01
 Coeff:     -0.955D-01 0.296D-01 0.108D+01
 Gap=     0.308 Goal=   None    Shift=    0.000
 RMSDP=2.84D-09 MaxDP=1.94D-07 DE= 2.22D-11 OVMax= 7.22D-08

 SCF Done:  E(RwB97XD) =  -460.892884433     A.U. after   17 cycles
            NFock= 17  Conv=0.28D-08     -V/T= 1.9983
 KE= 4.616628966336D+02 PE=-2.199357443353D+03 EE= 7.144471062242D+02
 Leave Link  502 at Mon Nov 21 14:51:53 2022, MaxMem= 16106127360 cpu:             762.4 elap:              23.9
 (Enter /opt/ap/G16/B01/g16/l601.exe)
 Copying SCF densities to generalized density rwf, IOpCl= 0 IROHF=0.

 **********************************************************************

            Population analysis using the SCF Density.

 **********************************************************************

 Orbital symmetries:
       Occupied  (A) (A) (A) (A) (A) (A) (A) (A) (A) (A) (A) (A)
                 (A) (A) (A) (A) (A) (A) (A) (A) (A) (A) (A) (A)
                 (A) (A) (A) (A) (A) (A) (A) (A) (A) (A) (A) (A)
                 (A) (A)
       Virtual   (A) (A) (A) (A) (A) (A) (A) (A) (A) (A) (A) (A)
                 (A) (A) (A) (A) (A) (A) (A) (A) (A) (A) (A) (A)
                 (A) (A) (A) (A) (A) (A) (A) (A) (A) (A) (A) (A)
                 (A) (A) (A) (A) (A) (A) (A) (A) (A) (A) (A) (A)
                 (A) (A) (A) (A) (A) (A) (A) (A) (A) (A) (A) (A)
                 (A) (A) (A) (A) (A) (A) (A) (A) (A) (A) (A) (A)
                 (A) (A) (A) (A) (A) (A) (A) (A) (A) (A) (A) (A)
                 (A) (A) (A) (A) (A) (A) (A) (A) (A) (A) (A) (A)
                 (A) (A) (A) (A) (A) (A) (A) (A) (A) (A) (A) (A)
                 (A) (A) (A) (A) (A) (A) (A) (A) (A) (A) (A) (A)
                 (A) (A) (A) (A) (A) (A) (A) (A) (A) (A) (A) (A)
                 (A) (A) (A) (A) (A) (A) (A) (A) (A) (A) (A) (A)
                 (A) (A) (A) (A) (A) (A) (A) (A) (A) (A) (A) (A)
                 (A) (A) (A) (A) (A) (A) (A) (A) (A) (A) (A) (A)
                 (A) (A) (A) (A) (A) (A) (A) (A) (A) (A) (A) (A)
                 (A) (A) (A) (A) (A) (A) (A) (A) (A) (A) (A) (A)
                 (A) (A) (A) (A) (A) (A) (A) (A) (A) (A) (A) (A)
                 (A) (A) (A) (A) (A) (A) (A) (A) (A) (A) (A) (A)
                 (A) (A) (A) (A) (A) (A) (A) (A) (A) (A) (A) (A)
                 (A) (A) (A) (A) (A) (A) (A) (A) (A) (A) (A) (A)
                 (A) (A) (A) (A) (A) (A) (A) (A) (A) (A) (A) (A)
                 (A) (A) (A) (A) (A) (A)
 The electronic state is 1-A.
 Alpha  occ. eigenvalues --  -19.26888 -10.35288 -10.29560 -10.29366 -10.27080
 Alpha  occ. eigenvalues --  -10.26917 -10.26796 -10.26697 -10.26537 -10.26480
 Alpha  occ. eigenvalues --  -10.26245  -1.20181  -0.98600  -0.93981  -0.88424
 Alpha  occ. eigenvalues --   -0.86115  -0.83863  -0.75538  -0.73859  -0.72099
 Alpha  occ. eigenvalues --   -0.66384  -0.64379  -0.61875  -0.59454  -0.55722
 Alpha  occ. eigenvalues --   -0.53903  -0.52716  -0.51670  -0.51164  -0.48962
 Alpha  occ. eigenvalues --   -0.47226  -0.46061  -0.43178  -0.42779  -0.41567
 Alpha  occ. eigenvalues --   -0.35155  -0.32525  -0.28437
 Alpha virt. eigenvalues --    0.02353   0.03911   0.04619   0.04670   0.05043
 Alpha virt. eigenvalues --    0.06198   0.06583   0.08714   0.08732   0.09233
 Alpha virt. eigenvalues --    0.10722   0.11506   0.12315   0.13164   0.13888
 Alpha virt. eigenvalues --    0.14887   0.15122   0.15773   0.15868   0.16728
 Alpha virt. eigenvalues --    0.16765   0.17031   0.18018   0.18072   0.18391
 Alpha virt. eigenvalues --    0.18892   0.19255   0.19502   0.20053   0.20829
 Alpha virt. eigenvalues --    0.21322   0.21999   0.22398   0.22462   0.22866
 Alpha virt. eigenvalues --    0.24749   0.25847   0.25951   0.26187   0.27165
 Alpha virt. eigenvalues --    0.27299   0.29175   0.29921   0.30143   0.30352
 Alpha virt. eigenvalues --    0.31325   0.31605   0.32166   0.32954   0.33780
 Alpha virt. eigenvalues --    0.34747   0.34823   0.35471   0.35692   0.36076
 Alpha virt. eigenvalues --    0.36603   0.37662   0.38342   0.39481   0.39557
 Alpha virt. eigenvalues --    0.40431   0.41559   0.42530   0.42877   0.43492
 Alpha virt. eigenvalues --    0.44466   0.45474   0.46328   0.47843   0.50381
 Alpha virt. eigenvalues --    0.51428   0.58000   0.58474   0.60273   0.61176
 Alpha virt. eigenvalues --    0.62064   0.62749   0.65704   0.65968   0.66516
 Alpha virt. eigenvalues --    0.67335   0.67482   0.68506   0.68903   0.70308
 Alpha virt. eigenvalues --    0.70776   0.71225   0.72004   0.72287   0.72551
 Alpha virt. eigenvalues --    0.75168   0.75419   0.77710   0.78820   0.81393
 Alpha virt. eigenvalues --    0.82445   0.82865   0.85705   0.86969   0.87596
 Alpha virt. eigenvalues --    0.89477   0.91276   0.92387   0.92789   0.93486
 Alpha virt. eigenvalues --    0.96270   0.96934   0.97854   1.00115   1.00989
 Alpha virt. eigenvalues --    1.01712   1.02539   1.03915   1.05462   1.06531
 Alpha virt. eigenvalues --    1.06734   1.07346   1.10248   1.12230   1.13990
 Alpha virt. eigenvalues --    1.14766   1.15909   1.18860   1.19016   1.20055
 Alpha virt. eigenvalues --    1.20584   1.22514   1.23484   1.24366   1.24936
 Alpha virt. eigenvalues --    1.29623   1.32235   1.37827   1.44450   1.46164
 Alpha virt. eigenvalues --    1.49356   1.53695   1.57237   1.58297   1.59211
 Alpha virt. eigenvalues --    1.62161   1.62469   1.62733   1.63650   1.70202
 Alpha virt. eigenvalues --    1.70570   1.71092   1.71127   1.72570   1.76390
 Alpha virt. eigenvalues --    1.77286   1.79241   1.79987   1.81847   1.89283
 Alpha virt. eigenvalues --    1.90565   1.92483   1.92643   1.93416   1.94781
 Alpha virt. eigenvalues --    1.96618   1.97735   1.98111   2.00689   2.03132
 Alpha virt. eigenvalues --    2.04821   2.05304   2.07943   2.09100   2.09542
 Alpha virt. eigenvalues --    2.10296   2.12863   2.14016   2.15660   2.20740
 Alpha virt. eigenvalues --    2.24693   2.27824   2.28537   2.30480   2.35146
 Alpha virt. eigenvalues --    2.38423   2.39568   2.41887   2.50531   2.51712
 Alpha virt. eigenvalues --    2.52378   2.53954   2.55793   2.56454   2.58435
 Alpha virt. eigenvalues --    2.65032   2.68636   2.73165   2.75552   2.75971
 Alpha virt. eigenvalues --    2.80563   2.82364   2.85481   2.87510   2.88962
 Alpha virt. eigenvalues --    2.93901   2.94114   2.94894   3.00000   3.01223
 Alpha virt. eigenvalues --    3.02266   3.03361   3.04811   3.07186   3.07877
 Alpha virt. eigenvalues --    3.08965   3.12293   3.17774   3.18871   3.20234
 Alpha virt. eigenvalues --    3.21804   3.23967   3.25707   3.28743   3.35494
 Alpha virt. eigenvalues --    3.36734   3.39092   3.48334   3.50255   3.53641
 Alpha virt. eigenvalues --    3.56027   3.65741   3.74211   3.77616   3.80547
 Alpha virt. eigenvalues --    3.84335   3.89732   3.90773   4.00395   4.17766
 Alpha virt. eigenvalues --    4.30766   4.43847   4.44838   4.46662   4.52482
 Alpha virt. eigenvalues --    4.57819   4.62970   4.95050   4.97797   5.12630
 Alpha virt. eigenvalues --    5.67063   6.17937  23.80440  24.05828  24.16057
 Alpha virt. eigenvalues --   24.17709  24.22107  24.26923  24.41044  24.44936
 Alpha virt. eigenvalues --   24.52022  24.53901  50.17626
          Condensed to atoms (all electrons):
               1          2          3          4          5          6
     1  C   24.214710  -3.236876  -3.878936  -6.799952  -1.179917   0.363859
     2  C   -3.236876  21.498898  -4.030459  -0.336558  -3.324668  -4.501801
     3  C   -3.878936  -4.030459  12.554286   2.870660  -0.353772  -0.896191
     4  C   -6.799952  -0.336558   2.870660  12.301361  -0.437627  -1.402333
     5  C   -1.179917  -3.324668  -0.353772  -0.437627   9.377700   2.726870
     6  C    0.363859  -4.501801  -0.896191  -1.402333   2.726870  11.410477
     7  C   -4.135618  -0.326738   0.934205   0.182462   0.068586  -0.728977
     8  O   -0.489701  -0.174224   0.470996   0.030350  -0.033249   0.120995
     9  C    2.011660  -0.353355  -1.337155  -1.193024  -0.118858   0.717041
    10  H   -0.171866   0.001465   0.074116   0.592589   0.005186  -0.069383
    11  C   -0.279347   0.058902   0.053534   0.183547   0.149643  -1.015006
    12  H   -0.003060  -0.077791  -0.048230  -0.025875   0.526005   0.090199
    13  C   -1.256953   1.298416  -0.253009   0.531651  -1.231898  -1.390148
    14  H    0.277722   0.060736  -0.235566  -0.053143   0.047267   0.505092
    15  H   -0.006682   0.008361  -0.163204  -0.017227  -0.021118  -0.003741
    16  H    0.087133  -0.039721   0.181016   0.001525   0.002672   0.003235
    17  H    0.088706   0.007465  -0.011829  -0.139826   0.024916   0.010389
    18  H   -0.022054   0.036983  -0.026124   0.018800  -0.062796  -0.012346
    19  H    0.017607  -0.053246   0.063989  -0.013312  -0.031195  -0.066639
               7          8          9         10         11         12
     1  C   -4.135618  -0.489701   2.011660  -0.171866  -0.279347  -0.003060
     2  C   -0.326738  -0.174224  -0.353355   0.001465   0.058902  -0.077791
     3  C    0.934205   0.470996  -1.337155   0.074116   0.053534  -0.048230
     4  C    0.182462   0.030350  -1.193024   0.592589   0.183547  -0.025875
     5  C    0.068586  -0.033249  -0.118858   0.005186   0.149643   0.526005
     6  C   -0.728977   0.120995   0.717041  -0.069383  -1.015006   0.090199
     7  C   10.559406  -0.053185  -0.371636   0.062505   0.016594  -0.002771
     8  O   -0.053185   8.080926   0.033420   0.000672   0.000499  -0.000031
     9  C   -0.371636   0.033420   6.742527  -0.166970  -0.339366   0.054145
    10  H    0.062505   0.000672  -0.166970   0.509619   0.044924  -0.004323
    11  C    0.016594   0.000499  -0.339366   0.044924   6.307733  -0.126494
    12  H   -0.002771  -0.000031   0.054145  -0.004323  -0.126494   0.507923
    13  C   -0.267332   0.095133   0.038386   0.007649   0.741421  -0.017695
    14  H   -0.115990  -0.038025   0.024482  -0.000612   0.013775   0.002441
    15  H    0.560591  -0.019645  -0.001594   0.001208  -0.002038  -0.000321
    16  H   -0.163300   0.218910  -0.011845   0.000159  -0.001387   0.000017
    17  H   -0.113078  -0.000871   0.472569  -0.023000   0.000757   0.001467
    18  H   -0.008969  -0.000146   0.005572   0.000509   0.466375  -0.018507
    19  H    0.023250   0.002899  -0.005237  -0.000139  -0.058983  -0.000090
              13         14         15         16         17         18
     1  C   -1.256953   0.277722  -0.006682   0.087133   0.088706  -0.022054
     2  C    1.298416   0.060736   0.008361  -0.039721   0.007465   0.036983
     3  C   -0.253009  -0.235566  -0.163204   0.181016  -0.011829  -0.026124
     4  C    0.531651  -0.053143  -0.017227   0.001525  -0.139826   0.018800
     5  C   -1.231898   0.047267  -0.021118   0.002672   0.024916  -0.062796
     6  C   -1.390148   0.505092  -0.003741   0.003235   0.010389  -0.012346
     7  C   -0.267332  -0.115990   0.560591  -0.163300  -0.113078  -0.008969
     8  O    0.095133  -0.038025  -0.019645   0.218910  -0.000871  -0.000146
     9  C    0.038386   0.024482  -0.001594  -0.011845   0.472569   0.005572
    10  H    0.007649  -0.000612   0.001208   0.000159  -0.023000   0.000509
    11  C    0.741421   0.013775  -0.002038  -0.001387   0.000757   0.466375
    12  H   -0.017695   0.002441  -0.000321   0.000017   0.001467  -0.018507
    13  C    7.729258  -0.147619   0.007603  -0.020144  -0.004349  -0.047152
    14  H   -0.147619   0.500410  -0.001084   0.001308   0.000914   0.001912
    15  H    0.007603  -0.001084   0.532318  -0.003312  -0.014420  -0.000104
    16  H   -0.020144   0.001308  -0.003312   0.462392   0.001078  -0.000071
    17  H   -0.004349   0.000914  -0.014420   0.001078   0.509190   0.000103
    18  H   -0.047152   0.001912  -0.000104  -0.000071   0.000103   0.503362
    19  H    0.467449  -0.023762   0.000262  -0.000089  -0.000165  -0.014486
              19
     1  C    0.017607
     2  C   -0.053246
     3  C    0.063989
     4  C   -0.013312
     5  C   -0.031195
     6  C   -0.066639
     7  C    0.023250
     8  O    0.002899
     9  C   -0.005237
    10  H   -0.000139
    11  C   -0.058983
    12  H   -0.000090
    13  C    0.467449
    14  H   -0.023762
    15  H    0.000262
    16  H   -0.000089
    17  H   -0.000165
    18  H   -0.014486
    19  H    0.507800
 Mulliken charges:
               1
     1  C    0.399564
     2  C   -0.515788
     3  C    0.031672
     4  C   -0.294070
     5  C   -0.133748
     6  C    0.138405
     7  C   -0.120004
     8  O   -0.245724
     9  C   -0.200762
    10  H    0.135692
    11  C   -0.215084
    12  H    0.142990
    13  C   -0.280669
    14  H    0.179741
    15  H    0.144147
    16  H    0.280426
    17  H    0.189983
    18  H    0.179140
    19  H    0.184086
 Sum of Mulliken charges =  -0.00000
 Mulliken charges with hydrogens summed into heavy atoms:
               1
     1  C    0.399564
     2  C   -0.515788
     3  C    0.031672
     4  C   -0.158378
     5  C    0.009242
     6  C    0.318147
     7  C    0.024144
     8  O    0.034702
     9  C   -0.010780
    11  C   -0.035944
    13  C   -0.096582
 Electronic spatial extent (au):  <R**2>=           1509.5078
 Charge=             -0.0000 electrons
 Dipole moment (field-independent basis, Debye):
    X=             -0.9666    Y=             -0.4650    Z=              0.2384  Tot=              1.0988
 Quadrupole moment (field-independent basis, Debye-Ang):
   XX=            -49.4931   YY=            -58.5383   ZZ=            -67.9162
   XY=             -1.6878   XZ=             -0.6562   YZ=              0.6068
 Traceless Quadrupole moment (field-independent basis, Debye-Ang):
   XX=              9.1561   YY=              0.1109   ZZ=             -9.2670
   XY=             -1.6878   XZ=             -0.6562   YZ=              0.6068
 Octapole moment (field-independent basis, Debye-Ang**2):
  XXX=            -20.7746  YYY=             -1.4715  ZZZ=              0.0871  XYY=             -4.6016
  XXY=             13.4990  XXZ=              1.7379  XZZ=             -3.6929  YZZ=              4.7224
  YYZ=              1.5485  XYZ=             -1.7677
 Hexadecapole moment (field-independent basis, Debye-Ang**3):
 XXXX=          -1054.9368 YYYY=           -672.1379 ZZZZ=            -77.3763 XXXY=            -46.6153
 XXXZ=             -4.3731 YYYX=            -16.2043 YYYZ=              3.5275 ZZZX=             -0.3653
 ZZZY=              0.3616 XXYY=           -268.4997 XXZZ=           -239.0735 YYZZ=           -142.0712
 XXYZ=              4.3486 YYXZ=             -3.8745 ZZXY=             -8.4647
 N-N= 5.623545560622D+02 E-N=-2.199357443220D+03  KE= 4.616628966336D+02
 No NMR shielding tensors so no spin-rotation constants.
 Leave Link  601 at Mon Nov 21 14:51:53 2022, MaxMem= 16106127360 cpu:               3.9 elap:               0.2
 (Enter /opt/ap/G16/B01/g16/l9999.exe)
 1\1\GINC-N11\SP\RwB97XD\6-311++G(d,p)\C10H8O1\ROOT\21-Nov-2022\0\\#P w
 B97XD/6-311++G(d,p) scf=maxcycle=512\\_conf002.gjf nmol_natom 1_19\\0,
 1\C\C,1,1.40879539\C,1,1.42289824,2,117.24956717\C,2,1.41887971,1,119.
 07594714,3,0.16510261,0\C,2,1.42227783,1,117.46262303,3,-179.44443577,
 0\C,1,1.42440336,2,119.00293897,4,179.73740031,0\C,3,1.35510367,1,122.
 33979448,2,-0.36120568,0\O,3,1.37615658,1,115.04370777,2,-179.5931286,
 0\C,4,1.34577659,2,121.30210156,1,0.17277764,0\H,4,0.93023405,2,119.33
 469462,1,-179.75965297,0\C,5,1.34486794,2,122.06073707,1,-0.32265162,0
 \H,5,0.92957893,2,118.96449269,1,179.64671542,0\C,6,1.35980576,1,121.1
 112438,2,0.11625163,0\H,6,0.92999796,1,119.43671105,2,-179.87270235,0\
 H,7,0.93052813,3,120.28038366,1,-179.76477098,0\H,8,0.81991994,3,109.4
 8785721,1,-170.,0\H,9,0.93027331,4,119.71917791,2,179.60144151,0\H,11,
 0.92987565,5,119.70372857,2,-179.69197286,0\H,13,0.93032717,6,120.1452
 4692,1,179.85241379,0\\Version=ES64L-G16RevB.01\State=1-A\HF=-460.8928
 844\RMSD=2.837e-09\Dipole=0.4137393,-0.0917509,0.0853643\Quadrupole=5.
 8237051,-6.8911158,1.0674107,-0.3096766,-2.6921187,0.5563631\PG=C01 [X
 (C10H8O1)]\\@


 I (ERNEST RUTHERFORD) CAME INTO THE ROOM, WHICH WAS HALF DARK, AND PRESENTLY
 SPOTTED LORD KELVIN IN THE AUDIENCE AND REALIZED I WAS IN TROUBLE AT
 THE LAST PART OF MY SPEECH DEALING THE AGE OF THE EARTH, WHERE MY VIEWS
 CONFLICTED WITH HIS.  TO MY RELIEF KELVIN FELL FAST ASLEEP, BUT AS I CAME
 TO THE IMPORTANT POINT, I SAW THE OLD BIRD SIT UP AND COCK A BALEFUL GLANCE
 AT ME! THEN A SUDDEN INSPIRATION CAME AND I SAID LORD KELVIN HAD LIMITED
 THE AGE OF THE EARTH PROVIDED NO NEW SOURCE WAS DISCOVERED. THAT
 PROPHETIC UTTERANCE REFERS TO WHAT WE ARE NOW CONSIDERING TONIGHT, RADIUM!
 BEHOLD!  THE OLD BOY BEAMED UPON ME.
 Job cpu time:       0 days  0 hours 13 minutes 27.2 seconds.
 Elapsed time:       0 days  0 hours  0 minutes 25.4 seconds.
 File lengths (MBytes):  RWF=     51 Int=      0 D2E=      0 Chk=      6 Scr=      1
 Normal termination of Gaussian 16 at Mon Nov 21 14:51:53 2022.
