 Entering Gaussian System, Link 0=g16
 Input=_conf010.gjf
 Output=_conf010.log
 Initial command:
 /opt/ap/G16/B01/g16/l1.exe "/tmp2/scr/Gau-30984.inp" -scrdir="/tmp2/scr/"
 Entering Link 1 = /opt/ap/G16/B01/g16/l1.exe PID=     30985.
  
 Copyright (c) 1988-2017, Gaussian, Inc.  All Rights Reserved.
  
 This is part of the Gaussian(R) 16 program.  It is based on
 the Gaussian(R) 09 system (copyright 2009, Gaussian, Inc.),
 the Gaussian(R) 03 system (copyright 2003, Gaussian, Inc.),
 the Gaussian(R) 98 system (copyright 1998, Gaussian, Inc.),
 the Gaussian(R) 94 system (copyright 1995, Gaussian, Inc.),
 the Gaussian 92(TM) system (copyright 1992, Gaussian, Inc.),
 the Gaussian 90(TM) system (copyright 1990, Gaussian, Inc.),
 the Gaussian 88(TM) system (copyright 1988, Gaussian, Inc.),
 the Gaussian 86(TM) system (copyright 1986, Carnegie Mellon
 University), and the Gaussian 82(TM) system (copyright 1983,
 Carnegie Mellon University). Gaussian is a federally registered
 trademark of Gaussian, Inc.
  
 This software contains proprietary and confidential information,
 including trade secrets, belonging to Gaussian, Inc.
  
 This software is provided under written license and may be
 used, copied, transmitted, or stored only in accord with that
 written license.
  
 The following legend is applicable only to US Government
 contracts under FAR:
  
                    RESTRICTED RIGHTS LEGEND
  
 Use, reproduction and disclosure by the US Government is
 subject to restrictions as set forth in subparagraphs (a)
 and (c) of the Commercial Computer Software - Restricted
 Rights clause in FAR 52.227-19.
  
 Gaussian, Inc.
 340 Quinnipiac St., Bldg. 40, Wallingford CT 06492
  
  
 ---------------------------------------------------------------
 Warning -- This program may not be used in any manner that
 competes with the business of Gaussian, Inc. or will provide
 assistance to any competitor of Gaussian, Inc.  The licensee
 of this program is prohibited from giving any competitor of
 Gaussian, Inc. access to this program.  By using this program,
 the user acknowledges that Gaussian, Inc. is engaged in the
 business of creating and licensing software in the field of
 computational chemistry and represents and warrants to the
 licensee that it is not a competitor of Gaussian, Inc. and that
 it will not use this program in any manner prohibited above.
 ---------------------------------------------------------------
  

 Cite this work as:
 Gaussian 16, Revision B.01,
 M. J. Frisch, G. W. Trucks, H. B. Schlegel, G. E. Scuseria, 
 M. A. Robb, J. R. Cheeseman, G. Scalmani, V. Barone, 
 G. A. Petersson, H. Nakatsuji, X. Li, M. Caricato, A. V. Marenich, 
 J. Bloino, B. G. Janesko, R. Gomperts, B. Mennucci, H. P. Hratchian, 
 J. V. Ortiz, A. F. Izmaylov, J. L. Sonnenberg, D. Williams-Young, 
 F. Ding, F. Lipparini, F. Egidi, J. Goings, B. Peng, A. Petrone, 
 T. Henderson, D. Ranasinghe, V. G. Zakrzewski, J. Gao, N. Rega, 
 G. Zheng, W. Liang, M. Hada, M. Ehara, K. Toyota, R. Fukuda, 
 J. Hasegawa, M. Ishida, T. Nakajima, Y. Honda, O. Kitao, H. Nakai, 
 T. Vreven, K. Throssell, J. A. Montgomery, Jr., J. E. Peralta, 
 F. Ogliaro, M. J. Bearpark, J. J. Heyd, E. N. Brothers, K. N. Kudin, 
 V. N. Staroverov, T. A. Keith, R. Kobayashi, J. Normand, 
 K. Raghavachari, A. P. Rendell, J. C. Burant, S. S. Iyengar, 
 J. Tomasi, M. Cossi, J. M. Millam, M. Klene, C. Adamo, R. Cammi, 
 J. W. Ochterski, R. L. Martin, K. Morokuma, O. Farkas, 
 J. B. Foresman, and D. J. Fox, Gaussian, Inc., Wallingford CT, 2016.
 
 ******************************************
 Gaussian 16:  ES64L-G16RevB.01 20-Dec-2017
                21-Nov-2022 
 ******************************************
 %nprocshared=32
 Will use up to   32 processors via shared memory.
 %mem=120GB
 %chk=_conf010.chk
 ----------------------------------------
 #P wB97XD/6-311++G(d,p) scf=maxcycle=512
 ----------------------------------------
 1/38=1,172=1/1;
 2/12=2,17=6,18=5,40=1/2;
 3/5=4,6=6,7=1111,11=2,25=1,30=1,74=-58/1,2,3;
 4//1;
 5/5=2,7=512,38=5/2;
 6/7=2,8=2,9=2,10=2,28=1/1;
 99/5=1,9=1/99;
 Leave Link    1 at Mon Nov 21 14:52:19 2022, MaxMem= 16106127360 cpu:               1.6 elap:               0.1
 (Enter /opt/ap/G16/B01/g16/l101.exe)
 ----------------------------
 _conf010.gjf nmol_natom 1_19
 ----------------------------
 Symbolic Z-matrix:
 Charge =  0 Multiplicity = 1
 C
 C                    1     1.4088 
 C                    1     1.4229   2     117.24957 
 C                    2     1.41888  1     119.07595  3     0.1651   0
 C                    2     1.42228  1     117.46262  3    -179.44444  0
 C                    1     1.4244   2     119.00294  4     179.7374  0
 C                    3     1.3551   1     122.33979  2    -0.36121  0
 O                    3     1.37616  1     115.04371  2    -179.59313  0
 C                    4     1.34578  2     121.3021  1     0.17278  0
 H                    4     0.93023  2     119.33469  1    -179.75965  0
 C                    5     1.34487  2     122.06074  1    -0.32265  0
 H                    5     0.92958  2     118.96449  1     179.64672  0
 C                    6     1.35981  1     121.11124  2     0.11625  0
 H                    6     0.93     1     119.43671  2    -179.8727  0
 H                    7     0.93053  3     120.28038  1    -179.76477  0
 H                    8     0.81992  3     109.48786  1    -130.     0
 H                    9     0.93027  4     119.71918  2     179.60144  0
 H                    11    0.92988  5     119.70373  2    -179.69197  0
 H                    13    0.93033  6     120.14525  1     179.85241  0
 
 ITRead=  0  0  0  0  0  0  0  0  0  0  0  0  0  0  0  0  0  0  0
 MicOpt= -1 -1 -1 -1 -1 -1 -1 -1 -1 -1 -1 -1 -1 -1 -1 -1 -1 -1 -1
 NAtoms=     19 NQM=       19 NQMF=       0 NMMI=      0 NMMIF=      0
                NMic=       0 NMicF=      0.
                    Isotopes and Nuclear Properties:
 (Nuclear quadrupole moments (NQMom) in fm**2, nuclear magnetic moments (NMagM)
  in nuclear magnetons)

  Atom         1           2           3           4           5           6           7           8           9          10
 IAtWgt=          12          12          12          12          12          12          12          16          12           1
 AtmWgt=  12.0000000  12.0000000  12.0000000  12.0000000  12.0000000  12.0000000  12.0000000  15.9949146  12.0000000   1.0078250
 NucSpn=           0           0           0           0           0           0           0           0           0           1
 AtZEff=  -0.0000000  -0.0000000  -0.0000000  -0.0000000  -0.0000000  -0.0000000  -0.0000000  -0.0000000  -0.0000000  -0.0000000
 NQMom=    0.0000000   0.0000000   0.0000000   0.0000000   0.0000000   0.0000000   0.0000000   0.0000000   0.0000000   0.0000000
 NMagM=    0.0000000   0.0000000   0.0000000   0.0000000   0.0000000   0.0000000   0.0000000   0.0000000   0.0000000   2.7928460
 AtZNuc=   6.0000000   6.0000000   6.0000000   6.0000000   6.0000000   6.0000000   6.0000000   8.0000000   6.0000000   1.0000000

  Atom        11          12          13          14          15          16          17          18          19
 IAtWgt=          12           1          12           1           1           1           1           1           1
 AtmWgt=  12.0000000   1.0078250  12.0000000   1.0078250   1.0078250   1.0078250   1.0078250   1.0078250   1.0078250
 NucSpn=           0           1           0           1           1           1           1           1           1
 AtZEff=  -0.0000000  -0.0000000  -0.0000000  -0.0000000  -0.0000000  -0.0000000  -0.0000000  -0.0000000  -0.0000000
 NQMom=    0.0000000   0.0000000   0.0000000   0.0000000   0.0000000   0.0000000   0.0000000   0.0000000   0.0000000
 NMagM=    0.0000000   2.7928460   0.0000000   2.7928460   2.7928460   2.7928460   2.7928460   2.7928460   2.7928460
 AtZNuc=   6.0000000   1.0000000   6.0000000   1.0000000   1.0000000   1.0000000   1.0000000   1.0000000   1.0000000
 Leave Link  101 at Mon Nov 21 14:52:19 2022, MaxMem= 16106127360 cpu:               5.3 elap:               0.2
 (Enter /opt/ap/G16/B01/g16/l202.exe)
                          Input orientation:                          
 ---------------------------------------------------------------------
 Center     Atomic      Atomic             Coordinates (Angstroms)
 Number     Number       Type             X           Y           Z
 ---------------------------------------------------------------------
      1          6           0        0.000000    0.000000    0.000000
      2          6           0        0.000000    0.000000    1.408795
      3          6           0        1.264986    0.000000   -0.651498
      4          6           0        1.240062    0.003573    2.098326
      5          6           0       -1.261945   -0.012237    2.064707
      6          6           0       -1.245741   -0.009299   -0.690628
      7          6           0        2.433644    0.007218    0.034427
      8          8           0        1.212032    0.008854   -2.026607
      9          6           0        2.409936    0.010412    1.433147
     10          1           0        1.244276    0.000184    3.028545
     11          6           0       -2.421000   -0.017057    1.382624
     12          1           0       -1.286266   -0.017488    2.993953
     13          6           0       -2.424704   -0.015738   -0.013076
     14          1           0       -1.252769   -0.011151   -1.620598
     15          1           0        3.245045    0.010306   -0.421097
     16          1           0        1.696053   -0.582978   -2.322796
     17          1           0        3.210137    0.018260    1.907515
     18          1           0       -3.227740   -0.020753    1.845035
     19          1           0       -3.230632   -0.019714   -0.477804
 ---------------------------------------------------------------------
                    Distance matrix (angstroms):
                    1          2          3          4          5
     1  C    0.000000
     2  C    1.408795   0.000000
     3  C    1.422898   2.417643   0.000000
     4  C    2.437363   1.418880   2.749940   0.000000
     5  C    2.419849   1.422278   3.709892   2.502283   0.000000
     6  C    1.424403   2.441216   2.511049   3.735994   2.755385
     7  C    2.433898   2.794917   1.355104   2.384184   4.216609
     8  O    2.361406   3.642951   1.376157   4.125032   4.781198
     9  C    2.803892   2.410081   2.378396   1.345777   3.725867
    10  H    3.274188   2.042501   3.680101   0.930234   2.685197
    11  C    2.788042   2.421201   4.210040   3.730420   1.344868
    12  H    3.258610   2.041448   4.449551   2.680471   0.929579
    13  C    2.424790   2.810899   3.744548   4.229527   2.381009
    14  H    2.048388   3.278228   2.697845   4.477144   3.685317
    15  H    3.272269   3.725443   1.993445   3.219859   5.147104
    16  H    2.934594   4.140197   1.821790   4.483112   5.322188
    17  H    3.734157   3.248697   3.214420   1.979348   4.474947
    18  H    3.717915   3.257153   5.139815   4.475043   1.978050
    19  H    3.265834   3.741207   4.499015   5.159854   3.215610
                    6          7          8          9         10
     6  C    0.000000
     7  C    3.750180   0.000000
     8  O    2.797466   2.395871   0.000000
     9  C    4.227858   1.398925   3.661267   0.000000
    10  H    4.475771   3.221706   5.055262   1.975895   0.000000
    11  C    2.383205   5.038431   4.982213   4.831278   4.017910
    12  H    3.684813   4.753644   5.607870   4.012331   2.530840
    13  C    1.359806   4.858634   4.157013   5.046383   4.765829
    14  H    0.929998   4.040926   2.498097   4.768777   5.277300
    15  H    4.498910   0.930528   2.590522   2.033624   3.987882
    16  H    3.412804   2.539463   0.819920   3.868960   5.401947
    17  H    5.158096   2.027689   4.412463   0.930273   2.263105
    18  H    3.218391   5.943934   5.890846   5.652788   4.626021
    19  H    1.996295   5.687453   4.704984   5.955556   5.685040
                   11         12         13         14         15
    11  C    0.000000
    12  H    1.970788   0.000000
    13  C    1.395705   3.215317   0.000000
    14  H    3.222443   4.614677   1.989366   0.000000
    15  H    5.946277   5.674162   5.684470   4.655061   0.000000
    16  H    5.567811   6.122240   4.757857   3.084740   2.523455
    17  H    5.655657   4.625934   5.953256   5.689110   2.328887
    18  H    0.929876   2.255958   2.024221   3.988887   6.858080
    19  H    2.028966   3.979153   0.930327   2.284293   6.475995
                   16         17         18         19
    16  H    0.000000
    17  H    4.533153   0.000000
    18  H    6.475388   6.438299   0.000000
    19  H    5.290887   6.868384   2.322841   0.000000
 Stoichiometry    C10H8O
 Framework group  C1[X(C10H8O)]
 Deg. of freedom    51
 Full point group                 C1      NOp   1
 Largest Abelian subgroup         C1      NOp   1
 Largest concise Abelian subgroup C1      NOp   1
                         Standard orientation:                         
 ---------------------------------------------------------------------
 Center     Atomic      Atomic             Coordinates (Angstroms)
 Number     Number       Type             X           Y           Z
 ---------------------------------------------------------------------
      1          6           0        0.030988    0.429132   -0.014222
      2          6           0        0.366893   -0.938963   -0.000470
      3          6           0       -1.352853    0.760211   -0.017335
      4          6           0       -0.672998   -1.904265    0.005869
      5          6           0        1.748835   -1.274928    0.014930
      6          6           0        1.076133    1.396912   -0.014861
      7          6           0       -2.324259   -0.184602   -0.014858
      8          8           0       -1.629301    2.108128   -0.039746
      9          6           0       -1.967733   -1.537293   -0.004460
     10          1           0       -0.455294   -2.808579    0.018349
     11          6           0        2.711830   -0.336160    0.010118
     12          1           0        1.994019   -2.171476    0.029188
     13          6           0        2.382645    1.020087   -0.004834
     14          1           0        0.861222    2.301708   -0.022104
     15          1           0       -3.220871    0.064276   -0.020310
     16          1           0       -2.169885    2.286332    0.550407
     17          1           0       -2.631751   -2.188820   -0.005624
     18          1           0        3.605559   -0.592832    0.016257
     19          1           0        3.054523    1.663579   -0.007463
 ---------------------------------------------------------------------
 Rotational constants (GHZ):           2.0099247           1.1492138           0.7318796
 Leave Link  202 at Mon Nov 21 14:52:19 2022, MaxMem= 16106127360 cpu:               0.3 elap:               0.0
 (Enter /opt/ap/G16/B01/g16/l301.exe)
 Standard basis: 6-311++G(d,p) (5D, 7F)
 Ernie: Thresh=  0.10000D-02 Tol=  0.10000D-05 Strict=F.
 There are   309 symmetry adapted cartesian basis functions of A   symmetry.
 There are   298 symmetry adapted basis functions of A   symmetry.
   298 basis functions,   468 primitive gaussians,   309 cartesian basis functions
    38 alpha electrons       38 beta electrons
       nuclear repulsion energy       562.4447150657 Hartrees.
 IExCor= 4639 DFT=T Ex+Corr=wB97XD ExCW=0 ScaHFX=  1.000000
 ScaDFX=  1.000000  1.000000  1.000000  1.000000 ScalE2=  1.000000  1.000000
 IRadAn=      5 IRanWt=     -1 IRanGd=            0 ICorTp=0 IEmpDi=121
 HFx  wShort=  0.000000 wLong=  0.200000 cFull=  0.222036 cShort=  0.000000 cLong=  0.777964
 DFx  wShort=  0.000000 wLong=  0.200000 cFull=  0.000000 cShort=  0.000000 cLong=  1.000000
 NAtoms=   19 NActive=   19 NUniq=   19 SFac= 1.00D+00 NAtFMM=   60 NAOKFM=F Big=F
 Integral buffers will be    131072 words long.
 Raffenetti 2 integral format.
 Two-electron integral symmetry is turned on.
 R6Disp:  Grimme-D2 Dispersion energy=       -0.0102635555 Hartrees.
 Nuclear repulsion after empirical dispersion term =      562.4344515103 Hartrees.
 Leave Link  301 at Mon Nov 21 14:52:19 2022, MaxMem= 16106127360 cpu:               1.2 elap:               0.0
 (Enter /opt/ap/G16/B01/g16/l302.exe)
 NPDir=0 NMtPBC=     1 NCelOv=     1 NCel=       1 NClECP=     1 NCelD=      1
         NCelK=      1 NCelE2=     1 NClLst=     1 CellRange=     0.0.
 One-electron integrals computed using PRISM.
 One-electron integral symmetry used in STVInt
 NBasis=   298 RedAO= T EigKep=  1.29D-06  NBF=   298
 NBsUse=   296 1.00D-06 EigRej=  6.27D-07 NBFU=   296
 Precomputing XC quadrature grid using
 IXCGrd= 4 IRadAn=           5 IRanWt=          -1 IRanGd=           0 AccXCQ= 0.00D+00.
 Generated NRdTot=       0 NPtTot=           0 NUsed=           0 NTot=          32
 NSgBfM=   309   309   309   309   309 MxSgAt=    19 MxSgA2=    19.
 Leave Link  302 at Mon Nov 21 14:52:20 2022, MaxMem= 16106127360 cpu:              38.2 elap:               1.2
 (Enter /opt/ap/G16/B01/g16/l303.exe)
 DipDrv:  MaxL=1.
 Leave Link  303 at Mon Nov 21 14:52:20 2022, MaxMem= 16106127360 cpu:               1.3 elap:               0.0
 (Enter /opt/ap/G16/B01/g16/l401.exe)
 ExpMin= 3.60D-02 ExpMax= 8.59D+03 ExpMxC= 1.30D+03 IAcc=3 IRadAn=         5 AccDes= 0.00D+00
 Harris functional with IExCor= 4639 and IRadAn=       5 diagonalized for initial guess.
 HarFok:  IExCor= 4639 AccDes= 0.00D+00 IRadAn=         5 IDoV= 1 UseB2=F ITyADJ=14
 ICtDFT=  3500011 ScaDFX=  1.000000  1.000000  1.000000  1.000000
 FoFCou: FMM=F IPFlag=           0 FMFlag=      100000 FMFlg1=           0
         NFxFlg=           0 DoJE=T BraDBF=F KetDBF=T FulRan=T
         wScrn=  0.000000 ICntrl=       500 IOpCl=  0 I1Cent=   200000004 NGrid=           0
         NMat0=    1 NMatS0=      1 NMatT0=    0 NMatD0=    1 NMtDS0=    0 NMtDT0=    0
 Petite list used in FoFCou.
 Harris En= -440.615271579796    
 JPrj=0 DoOrth=F DoCkMO=F.
 Leave Link  401 at Mon Nov 21 14:52:21 2022, MaxMem= 16106127360 cpu:              16.4 elap:               0.5
 (Enter /opt/ap/G16/B01/g16/l502.exe)
 Integral symmetry usage will be decided dynamically.
 Closed shell SCF:
 Using DIIS extrapolation, IDIIS=  1040.
 NGot= 16106127360 LenX= 16105923535 LenY= 16105827613
 Requested convergence on RMS density matrix=1.00D-08 within 512 cycles.
 Requested convergence on MAX density matrix=1.00D-06.
 Requested convergence on             energy=1.00D-06.
 No special actions if energy rises.
 Fock matrices will be formed incrementally for  20 cycles.

 Cycle   1  Pass 1  IDiag  1:
 FoFJK:  IHMeth= 1 ICntrl=       0 DoSepK=T KAlg= 0 I1Cent=           0 FoldK=F
 IRaf=         1 NMat=       1 IRICut=       1 DoRegI=T DoRafI=F ISym2E= 0 IDoP0=0 IntGTp=1.
 FoFCou: FMM=F IPFlag=           0 FMFlag=      100000 FMFlg1=           0
         NFxFlg=           0 DoJE=T BraDBF=F KetDBF=F FulRan=T
         wScrn=  0.000000 ICntrl=       500 IOpCl=  0 I1Cent=           0 NGrid=           0
         NMat0=    1 NMatS0=      1 NMatT0=    0 NMatD0=    1 NMtDS0=    0 NMtDT0=    0
 Symmetry not used in FoFCou.
 E= -460.752902671964    
 DIIS: error= 4.79D-02 at cycle   1 NSaved=   1.
 NSaved= 1 IEnMin= 1 EnMin= -460.752902671964     IErMin= 1 ErrMin= 4.79D-02
 ErrMax= 4.79D-02  0.00D+00 EMaxC= 1.00D-01 BMatC= 9.55D-01 BMatP= 9.55D-01
 IDIUse=3 WtCom= 5.21D-01 WtEn= 4.79D-01
 Coeff-Com:  0.100D+01
 Coeff-En:   0.100D+01
 Coeff:      0.100D+01
 Gap=     0.342 Goal=   None    Shift=    0.000
 GapD=    0.342 DampG=1.000 DampE=0.500 DampFc=0.5000 IDamp=-1.
 Damping current iteration by 5.00D-01
 RMSDP=4.54D-02 MaxDP=4.50D+00              OVMax= 1.30D-01

 Cycle   2  Pass 1  IDiag  1:
 RMSU=  8.86D-03    CP:  8.19D-01
 E= -460.820009337923     Delta-E=       -0.067106665959 Rises=F Damp=T
 DIIS: error= 2.39D-02 at cycle   2 NSaved=   2.
 NSaved= 2 IEnMin= 2 EnMin= -460.820009337923     IErMin= 2 ErrMin= 2.39D-02
 ErrMax= 2.39D-02  0.00D+00 EMaxC= 1.00D-01 BMatC= 2.08D-01 BMatP= 9.55D-01
 IDIUse=3 WtCom= 7.61D-01 WtEn= 2.39D-01
 Coeff-Com: -0.721D+00 0.172D+01
 Coeff-En:   0.000D+00 0.100D+01
 Coeff:     -0.548D+00 0.155D+01
 Gap=     0.343 Goal=   None    Shift=    0.000
 RMSDP=2.40D-02 MaxDP=3.01D+00 DE=-6.71D-02 OVMax= 1.35D-01

 Cycle   3  Pass 1  IDiag  1:
 RMSU=  1.12D-02    CP:  6.44D-01  1.78D+00
 E= -460.861524897921     Delta-E=       -0.041515559999 Rises=F Damp=F
 DIIS: error= 8.93D-03 at cycle   3 NSaved=   3.
 NSaved= 3 IEnMin= 3 EnMin= -460.861524897921     IErMin= 3 ErrMin= 8.93D-03
 ErrMax= 8.93D-03  0.00D+00 EMaxC= 1.00D-01 BMatC= 3.10D-02 BMatP= 2.08D-01
 IDIUse=3 WtCom= 9.11D-01 WtEn= 8.93D-02
 Coeff-Com: -0.376D+00 0.799D+00 0.578D+00
 Coeff-En:   0.000D+00 0.000D+00 0.100D+01
 Coeff:     -0.343D+00 0.727D+00 0.615D+00
 Gap=     0.316 Goal=   None    Shift=    0.000
 RMSDP=7.86D-03 MaxDP=4.75D-01 DE=-4.15D-02 OVMax= 6.14D-02

 Cycle   4  Pass 1  IDiag  1:
 RMSU=  1.86D-03    CP:  6.04D-01  1.67D+00  4.61D-01
 E= -460.888955242354     Delta-E=       -0.027430344432 Rises=F Damp=F
 DIIS: error= 1.52D-03 at cycle   4 NSaved=   4.
 NSaved= 4 IEnMin= 4 EnMin= -460.888955242354     IErMin= 4 ErrMin= 1.52D-03
 ErrMax= 1.52D-03  0.00D+00 EMaxC= 1.00D-01 BMatC= 9.19D-04 BMatP= 3.10D-02
 IDIUse=3 WtCom= 9.85D-01 WtEn= 1.52D-02
 Coeff-Com: -0.136D+00 0.289D+00 0.283D+00 0.564D+00
 Coeff-En:   0.000D+00 0.000D+00 0.000D+00 0.100D+01
 Coeff:     -0.134D+00 0.284D+00 0.279D+00 0.571D+00
 Gap=     0.309 Goal=   None    Shift=    0.000
 RMSDP=1.09D-03 MaxDP=5.77D-02 DE=-2.74D-02 OVMax= 8.17D-03

 Cycle   5  Pass 1  IDiag  1:
 RMSU=  5.30D-04    CP:  6.07D-01  1.70D+00  5.28D-01  7.83D-01
 E= -460.889803398631     Delta-E=       -0.000848156278 Rises=F Damp=F
 DIIS: error= 2.45D-04 at cycle   5 NSaved=   5.
 NSaved= 5 IEnMin= 5 EnMin= -460.889803398631     IErMin= 5 ErrMin= 2.45D-04
 ErrMax= 2.45D-04  0.00D+00 EMaxC= 1.00D-01 BMatC= 1.66D-05 BMatP= 9.19D-04
 IDIUse=3 WtCom= 9.98D-01 WtEn= 2.45D-03
 Coeff-Com:  0.659D-02-0.138D-01 0.968D-02 0.130D+00 0.867D+00
 Coeff-En:   0.000D+00 0.000D+00 0.000D+00 0.000D+00 0.100D+01
 Coeff:      0.658D-02-0.138D-01 0.965D-02 0.130D+00 0.868D+00
 Gap=     0.310 Goal=   None    Shift=    0.000
 RMSDP=2.24D-04 MaxDP=1.32D-02 DE=-8.48D-04 OVMax= 2.65D-03

 Cycle   6  Pass 1  IDiag  1:
 RMSU=  1.61D-04    CP:  6.06D-01  1.70D+00  5.25D-01  8.26D-01  1.13D+00
 E= -460.889827577941     Delta-E=       -0.000024179310 Rises=F Damp=F
 DIIS: error= 1.55D-04 at cycle   6 NSaved=   6.
 NSaved= 6 IEnMin= 6 EnMin= -460.889827577941     IErMin= 6 ErrMin= 1.55D-04
 ErrMax= 1.55D-04  0.00D+00 EMaxC= 1.00D-01 BMatC= 3.35D-06 BMatP= 1.66D-05
 IDIUse=3 WtCom= 9.98D-01 WtEn= 1.55D-03
 Coeff-Com:  0.164D-01-0.349D-01-0.236D-01-0.108D-01 0.323D+00 0.730D+00
 Coeff-En:   0.000D+00 0.000D+00 0.000D+00 0.000D+00 0.000D+00 0.100D+01
 Coeff:      0.163D-01-0.348D-01-0.236D-01-0.108D-01 0.322D+00 0.731D+00
 Gap=     0.310 Goal=   None    Shift=    0.000
 RMSDP=1.23D-04 MaxDP=8.48D-03 DE=-2.42D-05 OVMax= 1.08D-03

 Cycle   7  Pass 1  IDiag  1:
 RMSU=  4.24D-05    CP:  6.06D-01  1.69D+00  5.21D-01  8.37D-01  1.23D+00
                    CP:  1.09D+00
 E= -460.889832811510     Delta-E=       -0.000005233569 Rises=F Damp=F
 DIIS: error= 4.82D-05 at cycle   7 NSaved=   7.
 NSaved= 7 IEnMin= 7 EnMin= -460.889832811510     IErMin= 7 ErrMin= 4.82D-05
 ErrMax= 4.82D-05  0.00D+00 EMaxC= 1.00D-01 BMatC= 2.63D-07 BMatP= 3.35D-06
 IDIUse=1 WtCom= 1.00D+00 WtEn= 0.00D+00
 Coeff-Com:  0.150D-02-0.315D-02-0.289D-02-0.135D-01-0.570D-01 0.992D-01
 Coeff-Com:  0.976D+00
 Coeff:      0.150D-02-0.315D-02-0.289D-02-0.135D-01-0.570D-01 0.992D-01
 Coeff:      0.976D+00
 Gap=     0.310 Goal=   None    Shift=    0.000
 RMSDP=2.86D-05 MaxDP=3.10D-03 DE=-5.23D-06 OVMax= 6.34D-04

 Cycle   8  Pass 1  IDiag  1:
 RMSU=  2.16D-05    CP:  6.06D-01  1.69D+00  5.20D-01  8.41D-01  1.23D+00
                    CP:  1.19D+00  1.03D+00
 E= -460.889833630001     Delta-E=       -0.000000818491 Rises=F Damp=F
 DIIS: error= 2.90D-05 at cycle   8 NSaved=   8.
 NSaved= 8 IEnMin= 8 EnMin= -460.889833630001     IErMin= 8 ErrMin= 2.90D-05
 ErrMax= 2.90D-05  0.00D+00 EMaxC= 1.00D-01 BMatC= 8.16D-08 BMatP= 2.63D-07
 IDIUse=1 WtCom= 1.00D+00 WtEn= 0.00D+00
 Coeff-Com: -0.194D-02 0.417D-02 0.285D-02-0.324D-02-0.763D-01-0.789D-01
 Coeff-Com:  0.412D+00 0.742D+00
 Coeff:     -0.194D-02 0.417D-02 0.285D-02-0.324D-02-0.763D-01-0.789D-01
 Coeff:      0.412D+00 0.742D+00
 Gap=     0.310 Goal=   None    Shift=    0.000
 RMSDP=1.28D-05 MaxDP=1.09D-03 DE=-8.18D-07 OVMax= 2.02D-04

 Cycle   9  Pass 1  IDiag  1:
 RMSU=  8.75D-06    CP:  6.06D-01  1.69D+00  5.20D-01  8.41D-01  1.23D+00
                    CP:  1.23D+00  1.05D+00  1.06D+00
 E= -460.889833793689     Delta-E=       -0.000000163688 Rises=F Damp=F
 DIIS: error= 8.16D-06 at cycle   9 NSaved=   9.
 NSaved= 9 IEnMin= 9 EnMin= -460.889833793689     IErMin= 9 ErrMin= 8.16D-06
 ErrMax= 8.16D-06  0.00D+00 EMaxC= 1.00D-01 BMatC= 6.28D-09 BMatP= 8.16D-08
 IDIUse=1 WtCom= 1.00D+00 WtEn= 0.00D+00
 Coeff-Com: -0.764D-03 0.163D-02 0.133D-02 0.135D-02-0.131D-01-0.388D-01
 Coeff-Com: -0.318D-01 0.171D+00 0.909D+00
 Coeff:     -0.764D-03 0.163D-02 0.133D-02 0.135D-02-0.131D-01-0.388D-01
 Coeff:     -0.318D-01 0.171D+00 0.909D+00
 Gap=     0.310 Goal=   None    Shift=    0.000
 RMSDP=7.13D-06 MaxDP=5.99D-04 DE=-1.64D-07 OVMax= 1.14D-04

 Cycle  10  Pass 1  IDiag  1:
 RMSU=  3.60D-06    CP:  6.06D-01  1.69D+00  5.20D-01  8.41D-01  1.23D+00
                    CP:  1.22D+00  1.05D+00  1.17D+00  1.11D+00
 E= -460.889833817171     Delta-E=       -0.000000023482 Rises=F Damp=F
 DIIS: error= 5.27D-06 at cycle  10 NSaved=  10.
 NSaved=10 IEnMin=10 EnMin= -460.889833817171     IErMin=10 ErrMin= 5.27D-06
 ErrMax= 5.27D-06  0.00D+00 EMaxC= 1.00D-01 BMatC= 9.72D-10 BMatP= 6.28D-09
 IDIUse=1 WtCom= 1.00D+00 WtEn= 0.00D+00
 Coeff-Com:  0.298D-04-0.687D-04 0.223D-04 0.790D-03 0.570D-02-0.355D-03
 Coeff-Com: -0.512D-01-0.678D-01 0.215D+00 0.898D+00
 Coeff:      0.298D-04-0.687D-04 0.223D-04 0.790D-03 0.570D-02-0.355D-03
 Coeff:     -0.512D-01-0.678D-01 0.215D+00 0.898D+00
 Gap=     0.310 Goal=   None    Shift=    0.000
 RMSDP=2.63D-06 MaxDP=2.72D-04 DE=-2.35D-08 OVMax= 4.11D-05

 Cycle  11  Pass 1  IDiag  1:
 RMSU=  7.48D-07    CP:  6.06D-01  1.69D+00  5.20D-01  8.41D-01  1.23D+00
                    CP:  1.22D+00  1.04D+00  1.21D+00  1.22D+00  1.13D+00
 E= -460.889833820422     Delta-E=       -0.000000003251 Rises=F Damp=F
 DIIS: error= 1.44D-06 at cycle  11 NSaved=  11.
 NSaved=11 IEnMin=11 EnMin= -460.889833820422     IErMin=11 ErrMin= 1.44D-06
 ErrMax= 1.44D-06  0.00D+00 EMaxC= 1.00D-01 BMatC= 2.19D-10 BMatP= 9.72D-10
 IDIUse=1 WtCom= 1.00D+00 WtEn= 0.00D+00
 Coeff-Com:  0.135D-03-0.289D-03-0.209D-03 0.826D-04 0.416D-02 0.564D-02
 Coeff-Com: -0.118D-01-0.557D-01-0.663D-01 0.344D+00 0.780D+00
 Coeff:      0.135D-03-0.289D-03-0.209D-03 0.826D-04 0.416D-02 0.564D-02
 Coeff:     -0.118D-01-0.557D-01-0.663D-01 0.344D+00 0.780D+00
 Gap=     0.310 Goal=   None    Shift=    0.000
 RMSDP=9.08D-07 MaxDP=5.98D-05 DE=-3.25D-09 OVMax= 1.59D-05

 Cycle  12  Pass 1  IDiag  1:
 RMSU=  3.60D-07    CP:  6.06D-01  1.69D+00  5.20D-01  8.41D-01  1.23D+00
                    CP:  1.22D+00  1.03D+00  1.22D+00  1.25D+00  1.22D+00
                    CP:  1.08D+00
 E= -460.889833820982     Delta-E=       -0.000000000561 Rises=F Damp=F
 DIIS: error= 5.76D-07 at cycle  12 NSaved=  12.
 NSaved=12 IEnMin=12 EnMin= -460.889833820982     IErMin=12 ErrMin= 5.76D-07
 ErrMax= 5.76D-07  0.00D+00 EMaxC= 1.00D-01 BMatC= 1.71D-11 BMatP= 2.19D-10
 IDIUse=1 WtCom= 1.00D+00 WtEn= 0.00D+00
 Coeff-Com:  0.820D-05-0.168D-04-0.259D-04-0.122D-03-0.486D-03 0.384D-03
 Coeff-Com:  0.788D-02 0.498D-02-0.441D-01-0.992D-01 0.203D-01 0.111D+01
 Coeff:      0.820D-05-0.168D-04-0.259D-04-0.122D-03-0.486D-03 0.384D-03
 Coeff:      0.788D-02 0.498D-02-0.441D-01-0.992D-01 0.203D-01 0.111D+01
 Gap=     0.310 Goal=   None    Shift=    0.000
 RMSDP=3.86D-07 MaxDP=2.56D-05 DE=-5.61D-10 OVMax= 8.32D-06

 Cycle  13  Pass 1  IDiag  1:
 RMSU=  1.28D-07    CP:  6.06D-01  1.69D+00  5.20D-01  8.41D-01  1.23D+00
                    CP:  1.22D+00  1.03D+00  1.22D+00  1.24D+00  1.26D+00
                    CP:  1.19D+00  1.40D+00
 E= -460.889833821076     Delta-E=       -0.000000000093 Rises=F Damp=F
 DIIS: error= 2.04D-07 at cycle  13 NSaved=  13.
 NSaved=13 IEnMin=13 EnMin= -460.889833821076     IErMin=13 ErrMin= 2.04D-07
 ErrMax= 2.04D-07  0.00D+00 EMaxC= 1.00D-01 BMatC= 5.07D-12 BMatP= 1.71D-11
 IDIUse=1 WtCom= 1.00D+00 WtEn= 0.00D+00
 Coeff-Com: -0.109D-04 0.237D-04 0.120D-04-0.590D-04-0.622D-03-0.473D-03
 Coeff-Com:  0.465D-02 0.840D-02-0.941D-02-0.732D-01-0.849D-01 0.456D+00
 Coeff-Com:  0.700D+00
 Coeff:     -0.109D-04 0.237D-04 0.120D-04-0.590D-04-0.622D-03-0.473D-03
 Coeff:      0.465D-02 0.840D-02-0.941D-02-0.732D-01-0.849D-01 0.456D+00
 Coeff:      0.700D+00
 Gap=     0.310 Goal=   None    Shift=    0.000
 RMSDP=1.14D-07 MaxDP=8.45D-06 DE=-9.33D-11 OVMax= 2.09D-06

 Cycle  14  Pass 1  IDiag  1:
 RMSU=  4.32D-08    CP:  6.06D-01  1.69D+00  5.20D-01  8.41D-01  1.23D+00
                    CP:  1.22D+00  1.03D+00  1.22D+00  1.24D+00  1.26D+00
                    CP:  1.21D+00  1.48D+00  1.19D+00
 E= -460.889833821099     Delta-E=       -0.000000000023 Rises=F Damp=F
 DIIS: error= 9.84D-08 at cycle  14 NSaved=  14.
 NSaved=14 IEnMin=14 EnMin= -460.889833821099     IErMin=14 ErrMin= 9.84D-08
 ErrMax= 9.84D-08  0.00D+00 EMaxC= 1.00D-01 BMatC= 6.56D-13 BMatP= 5.07D-12
 IDIUse=1 WtCom= 1.00D+00 WtEn= 0.00D+00
 Coeff-Com: -0.370D-05 0.788D-05 0.635D-05 0.135D-05-0.625D-04-0.183D-03
 Coeff-Com: -0.398D-03 0.111D-02 0.546D-02 0.915D-03-0.279D-01-0.105D+00
 Coeff-Com:  0.179D+00 0.947D+00
 Coeff:     -0.370D-05 0.788D-05 0.635D-05 0.135D-05-0.625D-04-0.183D-03
 Coeff:     -0.398D-03 0.111D-02 0.546D-02 0.915D-03-0.279D-01-0.105D+00
 Coeff:      0.179D+00 0.947D+00
 Gap=     0.310 Goal=   None    Shift=    0.000
 RMSDP=5.46D-08 MaxDP=3.47D-06 DE=-2.30D-11 OVMax= 1.30D-06

 Cycle  15  Pass 1  IDiag  1:
 RMSU=  1.60D-08    CP:  6.06D-01  1.69D+00  5.20D-01  8.41D-01  1.23D+00
                    CP:  1.22D+00  1.03D+00  1.22D+00  1.23D+00  1.26D+00
                    CP:  1.20D+00  1.50D+00  1.33D+00  1.16D+00
 E= -460.889833821095     Delta-E=        0.000000000003 Rises=F Damp=F
 DIIS: error= 3.17D-08 at cycle  15 NSaved=  15.
 NSaved=15 IEnMin=14 EnMin= -460.889833821099     IErMin=15 ErrMin= 3.17D-08
 ErrMax= 3.17D-08  0.00D+00 EMaxC= 1.00D-01 BMatC= 1.04D-13 BMatP= 6.56D-13
 IDIUse=1 WtCom= 1.00D+00 WtEn= 0.00D+00
 Coeff-Com: -0.204D-07-0.383D-07 0.737D-06 0.719D-05 0.566D-04 0.335D-05
 Coeff-Com: -0.717D-03-0.672D-03 0.238D-02 0.898D-02 0.369D-02-0.885D-01
 Coeff-Com: -0.522D-01 0.272D+00 0.855D+00
 Coeff:     -0.204D-07-0.383D-07 0.737D-06 0.719D-05 0.566D-04 0.335D-05
 Coeff:     -0.717D-03-0.672D-03 0.238D-02 0.898D-02 0.369D-02-0.885D-01
 Coeff:     -0.522D-01 0.272D+00 0.855D+00
 Gap=     0.310 Goal=   None    Shift=    0.000
 RMSDP=2.84D-08 MaxDP=2.03D-06 DE= 3.41D-12 OVMax= 4.84D-07

 Cycle  16  Pass 1  IDiag  1:
 RMSU=  7.16D-09    CP:  6.06D-01  1.69D+00  5.20D-01  8.41D-01  1.23D+00
                    CP:  1.22D+00  1.03D+00  1.21D+00  1.23D+00  1.26D+00
                    CP:  1.19D+00  1.50D+00  1.39D+00  1.32D+00  1.22D+00
 E= -460.889833821093     Delta-E=        0.000000000002 Rises=F Damp=F
 DIIS: error= 1.31D-08 at cycle  16 NSaved=  16.
 NSaved=16 IEnMin=14 EnMin= -460.889833821099     IErMin=16 ErrMin= 1.31D-08
 ErrMax= 1.31D-08  0.00D+00 EMaxC= 1.00D-01 BMatC= 2.05D-14 BMatP= 1.04D-13
 IDIUse=1 WtCom= 1.00D+00 WtEn= 0.00D+00
 Coeff-Com:  0.645D-06-0.141D-05-0.911D-06 0.204D-05 0.313D-04 0.415D-04
 Coeff-Com: -0.170D-03-0.415D-03-0.160D-03 0.313D-02 0.801D-02-0.117D-01
 Coeff-Com: -0.625D-01-0.843D-01 0.275D+00 0.873D+00
 Coeff:      0.645D-06-0.141D-05-0.911D-06 0.204D-05 0.313D-04 0.415D-04
 Coeff:     -0.170D-03-0.415D-03-0.160D-03 0.313D-02 0.801D-02-0.117D-01
 Coeff:     -0.625D-01-0.843D-01 0.275D+00 0.873D+00
 Gap=     0.310 Goal=   None    Shift=    0.000
 RMSDP=1.06D-08 MaxDP=1.05D-06 DE= 1.71D-12 OVMax= 2.06D-07

 Cycle  17  Pass 1  IDiag  1:
 RMSU=  2.26D-09    CP:  6.06D-01  1.69D+00  5.20D-01  8.41D-01  1.23D+00
                    CP:  1.22D+00  1.03D+00  1.21D+00  1.23D+00  1.26D+00
                    CP:  1.19D+00  1.49D+00  1.41D+00  1.38D+00  1.36D+00
                    CP:  1.14D+00
 E= -460.889833821099     Delta-E=       -0.000000000006 Rises=F Damp=F
 DIIS: error= 5.18D-09 at cycle  17 NSaved=  17.
 NSaved=17 IEnMin=17 EnMin= -460.889833821099     IErMin=17 ErrMin= 5.18D-09
 ErrMax= 5.18D-09  0.00D+00 EMaxC= 1.00D-01 BMatC= 1.34D-15 BMatP= 2.05D-14
 IDIUse=1 WtCom= 1.00D+00 WtEn= 0.00D+00
 Large coefficients: NSaved= 17 BigCof=    0.00 CofMax=   10.00 Det=-7.47D-15
 Inversion failed.  Reducing to 16 matrices.
 Large coefficients: NSaved= 16 BigCof=    0.00 CofMax=   10.00 Det=-7.83D-15
 Inversion failed.  Reducing to 15 matrices.
 Coeff-Com: -0.103D-06-0.664D-06-0.545D-05 0.340D-05 0.685D-04 0.652D-04
 Coeff-Com: -0.313D-03-0.116D-02 0.514D-03 0.110D-01-0.563D-03-0.304D-01
 Coeff-Com: -0.891D-01 0.349D-01 0.107D+01
 Coeff:     -0.103D-06-0.664D-06-0.545D-05 0.340D-05 0.685D-04 0.652D-04
 Coeff:     -0.313D-03-0.116D-02 0.514D-03 0.110D-01-0.563D-03-0.304D-01
 Coeff:     -0.891D-01 0.349D-01 0.107D+01
 Gap=     0.310 Goal=   None    Shift=    0.000
 RMSDP=3.17D-09 MaxDP=1.41D-07 DE=-5.57D-12 OVMax= 6.52D-08

 SCF Done:  E(RwB97XD) =  -460.889833821     A.U. after   17 cycles
            NFock= 17  Conv=0.32D-08     -V/T= 1.9983
 KE= 4.616813638607D+02 PE=-2.199567587879D+03 EE= 7.145619386870D+02
 Leave Link  502 at Mon Nov 21 14:52:48 2022, MaxMem= 16106127360 cpu:             860.8 elap:              27.3
 (Enter /opt/ap/G16/B01/g16/l601.exe)
 Copying SCF densities to generalized density rwf, IOpCl= 0 IROHF=0.

 **********************************************************************

            Population analysis using the SCF Density.

 **********************************************************************

 Orbital symmetries:
       Occupied  (A) (A) (A) (A) (A) (A) (A) (A) (A) (A) (A) (A)
                 (A) (A) (A) (A) (A) (A) (A) (A) (A) (A) (A) (A)
                 (A) (A) (A) (A) (A) (A) (A) (A) (A) (A) (A) (A)
                 (A) (A)
       Virtual   (A) (A) (A) (A) (A) (A) (A) (A) (A) (A) (A) (A)
                 (A) (A) (A) (A) (A) (A) (A) (A) (A) (A) (A) (A)
                 (A) (A) (A) (A) (A) (A) (A) (A) (A) (A) (A) (A)
                 (A) (A) (A) (A) (A) (A) (A) (A) (A) (A) (A) (A)
                 (A) (A) (A) (A) (A) (A) (A) (A) (A) (A) (A) (A)
                 (A) (A) (A) (A) (A) (A) (A) (A) (A) (A) (A) (A)
                 (A) (A) (A) (A) (A) (A) (A) (A) (A) (A) (A) (A)
                 (A) (A) (A) (A) (A) (A) (A) (A) (A) (A) (A) (A)
                 (A) (A) (A) (A) (A) (A) (A) (A) (A) (A) (A) (A)
                 (A) (A) (A) (A) (A) (A) (A) (A) (A) (A) (A) (A)
                 (A) (A) (A) (A) (A) (A) (A) (A) (A) (A) (A) (A)
                 (A) (A) (A) (A) (A) (A) (A) (A) (A) (A) (A) (A)
                 (A) (A) (A) (A) (A) (A) (A) (A) (A) (A) (A) (A)
                 (A) (A) (A) (A) (A) (A) (A) (A) (A) (A) (A) (A)
                 (A) (A) (A) (A) (A) (A) (A) (A) (A) (A) (A) (A)
                 (A) (A) (A) (A) (A) (A) (A) (A) (A) (A) (A) (A)
                 (A) (A) (A) (A) (A) (A) (A) (A) (A) (A) (A) (A)
                 (A) (A) (A) (A) (A) (A) (A) (A) (A) (A) (A) (A)
                 (A) (A) (A) (A) (A) (A) (A) (A) (A) (A) (A) (A)
                 (A) (A) (A) (A) (A) (A) (A) (A) (A) (A) (A) (A)
                 (A) (A) (A) (A) (A) (A) (A) (A) (A) (A) (A) (A)
                 (A) (A) (A) (A) (A) (A)
 The electronic state is 1-A.
 Alpha  occ. eigenvalues --  -19.26081 -10.34886 -10.29601 -10.29375 -10.27109
 Alpha  occ. eigenvalues --  -10.26937 -10.26869 -10.26784 -10.26624 -10.26550
 Alpha  occ. eigenvalues --  -10.26548  -1.19574  -0.98632  -0.94042  -0.88384
 Alpha  occ. eigenvalues --   -0.86121  -0.83925  -0.75231  -0.73693  -0.72217
 Alpha  occ. eigenvalues --   -0.66363  -0.64439  -0.61768  -0.59702  -0.55568
 Alpha  occ. eigenvalues --   -0.54254  -0.52748  -0.52190  -0.51166  -0.48542
 Alpha  occ. eigenvalues --   -0.47468  -0.44908  -0.42931  -0.42394  -0.41025
 Alpha  occ. eigenvalues --   -0.35597  -0.32561  -0.28876
 Alpha virt. eigenvalues --    0.02114   0.03957   0.04546   0.04739   0.04999
 Alpha virt. eigenvalues --    0.06223   0.06525   0.08531   0.08772   0.08971
 Alpha virt. eigenvalues --    0.10452   0.11609   0.12195   0.13138   0.13748
 Alpha virt. eigenvalues --    0.14957   0.15103   0.15737   0.16138   0.16745
 Alpha virt. eigenvalues --    0.16929   0.16958   0.17710   0.18082   0.18302
 Alpha virt. eigenvalues --    0.18466   0.19362   0.19493   0.20076   0.20696
 Alpha virt. eigenvalues --    0.21580   0.21829   0.22437   0.22542   0.22902
 Alpha virt. eigenvalues --    0.24601   0.25723   0.25958   0.26284   0.26958
 Alpha virt. eigenvalues --    0.27614   0.28952   0.29461   0.29913   0.30263
 Alpha virt. eigenvalues --    0.31368   0.31856   0.32344   0.32641   0.33309
 Alpha virt. eigenvalues --    0.33916   0.34668   0.35190   0.35587   0.36114
 Alpha virt. eigenvalues --    0.36582   0.36900   0.37870   0.38622   0.39371
 Alpha virt. eigenvalues --    0.40021   0.41418   0.41821   0.42764   0.43153
 Alpha virt. eigenvalues --    0.44351   0.44835   0.46502   0.48049   0.48735
 Alpha virt. eigenvalues --    0.51159   0.57532   0.58459   0.60197   0.61371
 Alpha virt. eigenvalues --    0.62034   0.62790   0.65511   0.66085   0.66391
 Alpha virt. eigenvalues --    0.67285   0.67509   0.68377   0.68853   0.70133
 Alpha virt. eigenvalues --    0.70429   0.71131   0.71643   0.72353   0.72619
 Alpha virt. eigenvalues --    0.74961   0.75271   0.76446   0.78965   0.81073
 Alpha virt. eigenvalues --    0.82258   0.83662   0.85149   0.87096   0.87731
 Alpha virt. eigenvalues --    0.89441   0.90432   0.91626   0.92646   0.93432
 Alpha virt. eigenvalues --    0.95928   0.96788   0.97355   1.00020   1.00565
 Alpha virt. eigenvalues --    1.01171   1.02396   1.04116   1.05168   1.05922
 Alpha virt. eigenvalues --    1.06808   1.07509   1.10200   1.11629   1.12150
 Alpha virt. eigenvalues --    1.14485   1.15253   1.18450   1.19187   1.20375
 Alpha virt. eigenvalues --    1.21346   1.22929   1.23668   1.24432   1.25499
 Alpha virt. eigenvalues --    1.27759   1.33753   1.34903   1.42657   1.46186
 Alpha virt. eigenvalues --    1.49460   1.56488   1.57775   1.57990   1.59492
 Alpha virt. eigenvalues --    1.61916   1.62377   1.63434   1.64833   1.70470
 Alpha virt. eigenvalues --    1.70686   1.71155   1.71799   1.72487   1.75823
 Alpha virt. eigenvalues --    1.76328   1.77634   1.80536   1.81678   1.85710
 Alpha virt. eigenvalues --    1.89652   1.90555   1.92502   1.92993   1.93545
 Alpha virt. eigenvalues --    1.96239   1.97456   1.98281   2.00315   2.03596
 Alpha virt. eigenvalues --    2.05153   2.05649   2.07879   2.09003   2.09169
 Alpha virt. eigenvalues --    2.09897   2.12382   2.13583   2.16146   2.19640
 Alpha virt. eigenvalues --    2.24800   2.27530   2.28855   2.30385   2.34764
 Alpha virt. eigenvalues --    2.37919   2.39697   2.40983   2.47677   2.51254
 Alpha virt. eigenvalues --    2.52450   2.53778   2.55270   2.55530   2.57855
 Alpha virt. eigenvalues --    2.66695   2.67229   2.72449   2.73123   2.76367
 Alpha virt. eigenvalues --    2.81258   2.81723   2.84657   2.88588   2.89312
 Alpha virt. eigenvalues --    2.93150   2.94195   2.95897   2.99251   3.01498
 Alpha virt. eigenvalues --    3.03181   3.04071   3.04509   3.06807   3.07645
 Alpha virt. eigenvalues --    3.08744   3.11466   3.17142   3.18820   3.19581
 Alpha virt. eigenvalues --    3.22388   3.24436   3.28543   3.33214   3.35615
 Alpha virt. eigenvalues --    3.37908   3.42623   3.48051   3.50213   3.53434
 Alpha virt. eigenvalues --    3.56133   3.61082   3.74020   3.77225   3.79834
 Alpha virt. eigenvalues --    3.84304   3.89687   3.90744   3.99751   4.13581
 Alpha virt. eigenvalues --    4.28100   4.43773   4.44746   4.45958   4.52311
 Alpha virt. eigenvalues --    4.57715   4.62183   4.94552   4.97607   5.21591
 Alpha virt. eigenvalues --    5.63527   6.16298  23.80292  24.06319  24.15994
 Alpha virt. eigenvalues --   24.17676  24.22072  24.26762  24.41119  24.44863
 Alpha virt. eigenvalues --   24.51883  24.53811  50.18759
          Condensed to atoms (all electrons):
               1          2          3          4          5          6
     1  C   27.155390  -3.243790  -5.556310  -4.989306  -2.360913   0.029073
     2  C   -3.243790  20.495674  -4.312104  -0.243352  -2.162571  -3.758598
     3  C   -5.556310  -4.312104  15.491473   2.256424  -0.170749  -0.788007
     4  C   -4.989306  -0.243352   2.256424  10.187935  -0.126813  -0.802262
     5  C   -2.360913  -2.162571  -0.170749  -0.126813   8.870980   2.116478
     6  C    0.029073  -3.758598  -0.788007  -0.802262   2.116478  10.212133
     7  C   -6.805730  -0.227005   1.312940  -0.395622   0.276160  -1.051965
     8  O   -0.517569  -0.282354   0.835174  -0.017044  -0.008405   0.117640
     9  C    1.717271  -0.512782  -1.346469  -0.238105  -0.202354   0.593592
    10  H   -0.170134   0.017991   0.083329   0.518811   0.037557  -0.063974
    11  C   -0.320689  -0.144568   0.259994   0.012199   0.256529  -0.831834
    12  H   -0.033178  -0.037413  -0.045182   0.000913   0.495536   0.062963
    13  C    0.056842   0.719105  -1.128431   0.340016  -0.836744  -0.363103
    14  H    0.329540   0.137206  -0.421841  -0.018926   0.036517   0.446524
    15  H   -0.086985   0.008159  -0.135680   0.000557  -0.019014  -0.017424
    16  H    0.128429  -0.014823   0.042466   0.008728  -0.000675   0.023313
    17  H    0.141293  -0.015404  -0.000407  -0.131558   0.008952   0.017999
    18  H   -0.030883   0.050315  -0.033788   0.024950  -0.049870  -0.022494
    19  H    0.031029  -0.072166   0.073487  -0.022178  -0.028538  -0.047071
               7          8          9         10         11         12
     1  C   -6.805730  -0.517569   1.717271  -0.170134  -0.320689  -0.033178
     2  C   -0.227005  -0.282354  -0.512782   0.017991  -0.144568  -0.037413
     3  C    1.312940   0.835174  -1.346469   0.083329   0.259994  -0.045182
     4  C   -0.395622  -0.017044  -0.238105   0.518811   0.012199   0.000913
     5  C    0.276160  -0.008405  -0.202354   0.037557   0.256529   0.495536
     6  C   -1.051965   0.117640   0.593592  -0.063974  -0.831834   0.062963
     7  C   13.870724  -0.060208  -0.508527   0.079792   0.110935   0.003166
     8  O   -0.060208   8.008293   0.000964   0.000391  -0.003963   0.000389
     9  C   -0.508527   0.000964   6.579260  -0.170950  -0.394162   0.045365
    10  H    0.079792   0.000391  -0.170950   0.507026   0.055039  -0.002491
    11  C    0.110935  -0.003963  -0.394162   0.055039   6.368025  -0.123615
    12  H    0.003166   0.000389   0.045365  -0.002491  -0.123615   0.505838
    13  C   -0.787781  -0.017902   0.127867  -0.005446   0.551219  -0.001201
    14  H   -0.215533  -0.042247   0.032595  -0.001215   0.019797   0.001560
    15  H    0.649551  -0.016724  -0.042329   0.002442  -0.000496  -0.000335
    16  H   -0.171229   0.272587   0.000541   0.000131  -0.000260   0.000002
    17  H   -0.185096  -0.000192   0.499703  -0.023805  -0.003528   0.001067
    18  H   -0.011396  -0.000364   0.007107   0.000284   0.458149  -0.018408
    19  H    0.028486   0.003295  -0.006332  -0.000111  -0.051911   0.000327
              13         14         15         16         17         18
     1  C    0.056842   0.329540  -0.086985   0.128429   0.141293  -0.030883
     2  C    0.719105   0.137206   0.008159  -0.014823  -0.015404   0.050315
     3  C   -1.128431  -0.421841  -0.135680   0.042466  -0.000407  -0.033788
     4  C    0.340016  -0.018926   0.000557   0.008728  -0.131558   0.024950
     5  C   -0.836744   0.036517  -0.019014  -0.000675   0.008952  -0.049870
     6  C   -0.363103   0.446524  -0.017424   0.023313   0.017999  -0.022494
     7  C   -0.787781  -0.215533   0.649551  -0.171229  -0.185096  -0.011396
     8  O   -0.017902  -0.042247  -0.016724   0.272587  -0.000192  -0.000364
     9  C    0.127867   0.032595  -0.042329   0.000541   0.499703   0.007107
    10  H   -0.005446  -0.001215   0.002442   0.000131  -0.023805   0.000284
    11  C    0.551219   0.019797  -0.000496  -0.000260  -0.003528   0.458149
    12  H   -0.001201   0.001560  -0.000335   0.000002   0.001067  -0.018408
    13  C    7.155726   0.010225   0.000562   0.000348   0.002582  -0.046106
    14  H    0.010225   0.527964  -0.002245  -0.000502   0.001725   0.002633
    15  H    0.000562  -0.002245   0.510986  -0.005077  -0.017320  -0.000143
    16  H    0.000348  -0.000502  -0.005077   0.440202   0.000848  -0.000039
    17  H    0.002582   0.001725  -0.017320   0.000848   0.512277   0.000185
    18  H   -0.046106   0.002633  -0.000143  -0.000039   0.000185   0.505408
    19  H    0.440121  -0.024395   0.000315  -0.000060  -0.000221  -0.014214
              19
     1  C    0.031029
     2  C   -0.072166
     3  C    0.073487
     4  C   -0.022178
     5  C   -0.028538
     6  C   -0.047071
     7  C    0.028486
     8  O    0.003295
     9  C   -0.006332
    10  H   -0.000111
    11  C   -0.051911
    12  H    0.000327
    13  C    0.440121
    14  H   -0.024395
    15  H    0.000315
    16  H   -0.000060
    17  H   -0.000221
    18  H   -0.014214
    19  H    0.504578
 Mulliken charges:
               1
     1  C    0.526620
     2  C   -0.401520
     3  C   -0.416321
     4  C   -0.365364
     5  C   -0.132062
     6  C    0.127019
     7  C    0.088340
     8  O   -0.271757
     9  C   -0.182254
    10  H    0.135334
    11  C   -0.216859
    12  H    0.144697
    13  C   -0.217899
    14  H    0.180618
    15  H    0.171201
    16  H    0.275072
    17  H    0.190901
    18  H    0.178674
    19  H    0.185559
 Sum of Mulliken charges =  -0.00000
 Mulliken charges with hydrogens summed into heavy atoms:
               1
     1  C    0.526620
     2  C   -0.401520
     3  C   -0.416321
     4  C   -0.230030
     5  C    0.012636
     6  C    0.307637
     7  C    0.259541
     8  O    0.003315
     9  C    0.008647
    11  C   -0.038185
    13  C   -0.032340
 Electronic spatial extent (au):  <R**2>=           1508.1362
 Charge=             -0.0000 electrons
 Dipole moment (field-independent basis, Debye):
    X=             -0.5168    Y=             -0.5780    Z=              1.0175  Tot=              1.2792
 Quadrupole moment (field-independent basis, Debye-Ang):
   XX=            -51.8341   YY=            -58.2068   ZZ=            -67.0520
   XY=             -0.4531   XZ=             -2.5315   YZ=              2.7212
 Traceless Quadrupole moment (field-independent basis, Debye-Ang):
   XX=              7.1968   YY=              0.8242   ZZ=             -8.0211
   XY=             -0.4531   XZ=             -2.5315   YZ=              2.7212
 Octapole moment (field-independent basis, Debye-Ang**2):
  XXX=            -11.9008  YYY=             -0.7465  ZZZ=              0.7863  XYY=             -2.5515
  XXY=              7.5081  XXZ=              5.9254  XZZ=             -5.2537  YZZ=              6.4582
  YYZ=              7.0671  XYZ=             -6.8164
 Hexadecapole moment (field-independent basis, Debye-Ang**3):
 XXXX=          -1079.3964 YYYY=           -667.5951 ZZZZ=            -77.2998 XXXY=            -23.8228
 XXXZ=            -13.6587 YYYX=            -12.3056 YYYZ=             17.3880 ZZZX=             -2.3541
 ZZZY=              2.5998 XXYY=           -280.4930 XXZZ=           -235.1765 YYZZ=           -137.8555
 XXYZ=             15.2303 YYXZ=            -16.2094 ZZXY=            -11.6659
 N-N= 5.624344515103D+02 E-N=-2.199567587777D+03  KE= 4.616813638607D+02
 No NMR shielding tensors so no spin-rotation constants.
 Leave Link  601 at Mon Nov 21 14:52:48 2022, MaxMem= 16106127360 cpu:               4.1 elap:               0.2
 (Enter /opt/ap/G16/B01/g16/l9999.exe)
 1\1\GINC-N11\SP\RwB97XD\6-311++G(d,p)\C10H8O1\ROOT\21-Nov-2022\0\\#P w
 B97XD/6-311++G(d,p) scf=maxcycle=512\\_conf010.gjf nmol_natom 1_19\\0,
 1\C\C,1,1.40879539\C,1,1.42289824,2,117.24956717\C,2,1.41887971,1,119.
 07594714,3,0.16510261,0\C,2,1.42227783,1,117.46262303,3,-179.44443577,
 0\C,1,1.42440336,2,119.00293897,4,179.73740031,0\C,3,1.35510367,1,122.
 33979448,2,-0.36120568,0\O,3,1.37615658,1,115.04370777,2,-179.5931286,
 0\C,4,1.34577659,2,121.30210156,1,0.17277764,0\H,4,0.93023405,2,119.33
 469462,1,-179.75965297,0\C,5,1.34486794,2,122.06073707,1,-0.32265162,0
 \H,5,0.92957893,2,118.96449269,1,179.64671542,0\C,6,1.35980576,1,121.1
 112438,2,0.11625163,0\H,6,0.92999796,1,119.43671105,2,-179.87270235,0\
 H,7,0.93052813,3,120.28038366,1,-179.76477098,0\H,8,0.81991994,3,109.4
 8785721,1,-130.,0\H,9,0.93027331,4,119.71917791,2,179.60144151,0\H,11,
 0.92987565,5,119.70372857,2,-179.69197286,0\H,13,0.93032717,6,120.1452
 4692,1,179.85241379,0\\Version=ES64L-G16RevB.01\State=1-A\HF=-460.8898
 338\RMSD=3.167e-09\Dipole=0.2526981,-0.3979627,0.1762429\Quadrupole=4.
 9321699,-5.9225809,0.990411,-1.3311241,-1.3888996,2.477926\PG=C01 [X(C
 10H8O1)]\\@


 ... FOR AFTERWARDS A MAN FINDS PLEASURE IN HIS PAINS,
 WHEN HE HAS SUFFERED LONG AND WANDERED FAR.

                                    -- HOMER
 Job cpu time:       0 days  0 hours 15 minutes 32.0 seconds.
 Elapsed time:       0 days  0 hours  0 minutes 29.6 seconds.
 File lengths (MBytes):  RWF=     51 Int=      0 D2E=      0 Chk=      6 Scr=      1
 Normal termination of Gaussian 16 at Mon Nov 21 14:52:49 2022.
