LAMMPS Description

19 atoms
20 bonds
31 angles
46 dihedrals
7 impropers

19 atom types
4 bond types
4 angle types
2 dihedral types
1 improper types

-50.00000  50.00000 xlo xhi
-50.00000  50.00000 ylo yhi
-50.00000  50.00000 zlo zhi

Masses

1  12.01000 # CA0
2  12.01000 # CA1
3  12.01000 # CA2
4  12.01000 # CA3
5  12.01000 # CA4
6  12.01000 # CA5
7  12.01000 # CA6
8  16.00000 # OH
9  12.01000 # CA7
10   1.00800 # HA0
11  12.01000 # CA8
12   1.00800 # HA1
13  12.01000 # CA9
14   1.00800 # HA2
15   1.00800 # HA3
16   1.00800 # HO
17   1.00800 # HA4
18   1.00800 # HA5
19   1.00800 # HA6

Atoms

1 1 1  -0.01205   0.03141   0.44682  -0.00061
2 1 2   0.23885   0.39463  -0.93401  -0.00031
3 1 3   0.29435  -1.33266   0.80369   0.00270
4 1 4  -0.35342  -0.61170  -1.91163  -0.00081
5 1 5  -0.29257   1.75497  -1.26545  -0.00010
6 1 6  -0.09593   1.05526   1.40496   0.00001
7 1 7  -0.31771  -2.30086  -0.19650  -0.00007
8 1 8  -0.61982  -1.74586   2.09678   0.00115
9 1 9  -0.01422  -1.95003  -1.54037   0.00020
10 1 10   0.16621  -0.34923  -2.96409   0.00017
11 1 11  -0.00550   2.73862  -0.29027   0.00011
12 1 12   0.14932   2.07184  -2.30320   0.00024
13 1 13  -0.17577   2.39204   1.04621   0.00000
14 1 14   0.12203   0.81194   2.46025  -0.00054
15 1 15   0.16309  -3.34967   0.07379   0.00070
16 1 16   0.43604  -2.70216   2.08833  -0.00264
17 1 17   0.10745  -2.72674  -2.29839  -0.00049
18 1 18   0.08708   3.78339  -0.57635   0.00001
19 1 19   0.12257   3.16045   1.80871  -0.00006

Bonds

1 4 1 2
2 4 1 3
3 4 1 6
4 4 2 4
5 4 2 5
6 4 3 7
7 2 3 8
8 4 4 9
9 3 4 10
10 4 5 11
11 3 5 12
12 4 6 13
13 3 6 14
14 4 7 9
15 3 7 15
16 1 8 16
17 3 9 17
18 4 11 13
19 3 11 18
20 3 13 19

Angles

1 3 1 2 4
2 3 1 2 5
3 3 1 3 7
4 3 1 6 13
5 3 2 1 3
6 3 2 1 6
7 3 2 4 9
8 3 2 5 11
9 3 3 1 6
10 3 3 7 9
11 3 4 2 5
12 3 4 9 7
13 3 5 11 13
14 3 6 13 11
15 2 1 6 14
16 2 2 4 10
17 2 2 5 12
18 2 3 7 15
19 2 4 9 17
20 2 5 11 18
21 2 6 13 19
22 2 7 9 17
23 2 9 4 10
24 2 9 7 15
25 2 11 5 12
26 2 11 13 19
27 2 13 6 14
28 2 13 11 18
29 1 1 3 8
30 1 7 3 8
31 4 3 8 16

Dihedrals

1 1 1 2 4 9
2 1 1 2 5 11
3 1 1 3 7 9
4 1 1 6 13 11
5 1 2 1 3 7
6 1 2 1 6 13
7 1 2 4 9 7
8 1 2 5 11 13
9 1 3 1 2 4
10 1 3 1 2 5
11 1 3 1 6 13
12 1 3 7 9 4
13 1 4 2 1 6
14 1 4 2 5 11
15 1 5 2 1 6
16 1 5 2 4 9
17 1 5 11 13 6
18 1 6 1 3 7
19 1 1 2 4 10
20 1 1 2 5 12
21 1 1 3 7 15
22 1 1 6 13 19
23 1 2 1 6 14
24 1 2 4 9 17
25 1 2 5 11 18
26 1 3 1 6 14
27 1 3 7 9 17
28 1 4 2 5 12
29 1 4 9 7 15
30 1 5 2 4 10
31 1 5 11 13 19
32 1 6 13 11 18
33 1 7 9 4 10
34 1 11 13 6 14
35 1 12 5 11 13
36 1 2 1 3 8
37 1 6 1 3 8
38 1 8 3 7 9
39 1 8 3 7 15
40 1 10 4 9 17
41 1 12 5 11 18
42 1 14 6 13 19
43 1 15 7 9 17
44 1 18 11 13 19
45 2 1 3 8 16
46 2 7 3 8 16

Impropers

1 1 1 13 6 14
2 1 2 9 4 10
3 1 2 11 5 12
4 1 3 9 7 15
5 1 4 7 9 17
6 1 5 13 11 18
7 1 6 11 13 19

